Program Version,EnergyPlus, Version 9.4.0-998c4b761e, YMD=2021.06.25 08:51
1,5,Environment Title[],Latitude[deg],Longitude[deg],Time Zone[],Elevation[m]
2,8,Day of Simulation[],Month[],Day of Month[],DST Indicator[1=yes 0=no],Hour[],StartMinute[],EndMinute[],DayType
3,5,Cumulative Day of Simulation[],Month[],Day of Month[],DST Indicator[1=yes 0=no],DayType  ! When Daily Report Variables Requested
4,2,Cumulative Days of Simulation[],Month[]  ! When Monthly Report Variables Requested
5,1,Cumulative Days of Simulation[] ! When Run Period Report Variables Requested
6,1,Calendar Year of Simulation[] ! When Annual Report Variables Requested
8,1,Electricity:Facility [J] !TimeStep
1095,1,NaturalGas:Facility [J] !TimeStep
End of Data Dictionary
1,CLIMATE ZONE 3 ANN CLG .4% CONDNS DB=>MWB HVAC Sizing Pass 1,  37.70,-122.20,  -8.00,   2.00
2,1, 8,21, 0, 1, 0.00,10.00,SummerDesignDay
8,213594299.11974976
1095,0.0
2,1, 8,21, 0, 1,10.00,20.00,SummerDesignDay
8,213368070.89261026
1095,0.0
2,1, 8,21, 0, 1,20.00,30.00,SummerDesignDay
8,213142929.77371467
1095,0.0
2,1, 8,21, 0, 1,30.00,40.00,SummerDesignDay
8,212918804.59891368
1095,0.0
2,1, 8,21, 0, 1,40.00,50.00,SummerDesignDay
8,212695535.55782873
1095,0.0
2,1, 8,21, 0, 1,50.00,60.00,SummerDesignDay
8,212472981.5578993
1095,0.0
2,1, 8,21, 0, 2, 0.00,10.00,SummerDesignDay
8,212308585.9931601
1095,0.0
2,1, 8,21, 0, 2,10.00,20.00,SummerDesignDay
8,212146259.47185696
1095,0.0
2,1, 8,21, 0, 2,20.00,30.00,SummerDesignDay
8,211985594.11288394
1095,0.0
2,1, 8,21, 0, 2,30.00,40.00,SummerDesignDay
8,211826338.46878044
1095,0.0
2,1, 8,21, 0, 2,40.00,50.00,SummerDesignDay
8,211668654.05533407
1095,0.0
2,1, 8,21, 0, 2,50.00,60.00,SummerDesignDay
8,211512254.22035868
1095,0.0
2,1, 8,21, 0, 3, 0.00,10.00,SummerDesignDay
8,211385869.1455503
1095,0.0
2,1, 8,21, 0, 3,10.00,20.00,SummerDesignDay
8,211260899.52035425
1095,0.0
2,1, 8,21, 0, 3,20.00,30.00,SummerDesignDay
8,211137653.86400686
1095,0.0
2,1, 8,21, 0, 3,30.00,40.00,SummerDesignDay
8,211015632.23612679
1095,0.0
2,1, 8,21, 0, 3,40.00,50.00,SummerDesignDay
8,210894910.75435794
1095,0.0
2,1, 8,21, 0, 3,50.00,60.00,SummerDesignDay
8,210774962.8697848
1095,0.0
2,1, 8,21, 0, 4, 0.00,10.00,SummerDesignDay
8,210655900.0863952
1095,0.0
2,1, 8,21, 0, 4,10.00,20.00,SummerDesignDay
8,210537460.03502197
1095,0.0
2,1, 8,21, 0, 4,20.00,30.00,SummerDesignDay
8,210419157.5493062
1095,0.0
2,1, 8,21, 0, 4,30.00,40.00,SummerDesignDay
8,210301701.29748149
1095,0.0
2,1, 8,21, 0, 4,40.00,50.00,SummerDesignDay
8,210183878.692415
1095,0.0
2,1, 8,21, 0, 4,50.00,60.00,SummerDesignDay
8,210066488.79193975
1095,0.0
2,1, 8,21, 0, 5, 0.00,10.00,SummerDesignDay
8,209978251.76809208
1095,0.0
2,1, 8,21, 0, 5,10.00,20.00,SummerDesignDay
8,209890963.27510385
1095,4324610.510766506
2,1, 8,21, 0, 5,20.00,30.00,SummerDesignDay
8,209804745.58929876
1095,0.0
2,1, 8,21, 0, 5,30.00,40.00,SummerDesignDay
8,209719536.65426154
1095,0.0
2,1, 8,21, 0, 5,40.00,50.00,SummerDesignDay
8,209635177.5618518
1095,0.0
2,1, 8,21, 0, 5,50.00,60.00,SummerDesignDay
8,209551522.8469929
1095,0.0
2,1, 8,21, 0, 6, 0.00,10.00,SummerDesignDay
8,209585176.77785126
1095,0.0
2,1, 8,21, 0, 6,10.00,20.00,SummerDesignDay
8,209622742.28955553
1095,0.0
2,1, 8,21, 0, 6,20.00,30.00,SummerDesignDay
8,209664358.7877616
1095,0.0
2,1, 8,21, 0, 6,30.00,40.00,SummerDesignDay
8,209901814.51592405
1095,0.0
2,1, 8,21, 0, 6,40.00,50.00,SummerDesignDay
8,210215863.56373919
1095,0.0
2,1, 8,21, 0, 6,50.00,60.00,SummerDesignDay
8,210573163.05320708
1095,0.0
2,1, 8,21, 0, 7, 0.00,10.00,SummerDesignDay
8,211110942.8950115
1095,0.0
2,1, 8,21, 0, 7,10.00,20.00,SummerDesignDay
8,211689702.62665756
1095,0.0
2,1, 8,21, 0, 7,20.00,30.00,SummerDesignDay
8,212304117.22014816
1095,0.0
2,1, 8,21, 0, 7,30.00,40.00,SummerDesignDay
8,212945562.7154391
1095,0.0
2,1, 8,21, 0, 7,40.00,50.00,SummerDesignDay
8,213606505.7194842
1095,0.0
2,1, 8,21, 0, 7,50.00,60.00,SummerDesignDay
8,214279061.9520273
1095,0.0
2,1, 8,21, 0, 8, 0.00,10.00,SummerDesignDay
8,215262654.92698808
1095,10918647.610620927
2,1, 8,21, 0, 8,10.00,20.00,SummerDesignDay
8,216248105.23603726
1095,10584787.187112224
2,1, 8,21, 0, 8,20.00,30.00,SummerDesignDay
8,217220955.61463879
1095,6137134.202986961
2,1, 8,21, 0, 8,30.00,40.00,SummerDesignDay
8,218081345.81085346
1095,5868122.36021348
2,1, 8,21, 0, 8,40.00,50.00,SummerDesignDay
8,219014725.27229706
1095,5777149.849159312
2,1, 8,21, 0, 8,50.00,60.00,SummerDesignDay
8,220012117.34973125
1095,5751440.360296759
2,1, 8,21, 0, 9, 0.00,10.00,SummerDesignDay
8,221090860.2493551
1095,9699585.49778386
2,1, 8,21, 0, 9,10.00,20.00,SummerDesignDay
8,222185927.2078641
1095,10693254.890671559
2,1, 8,21, 0, 9,20.00,30.00,SummerDesignDay
8,223289932.57613764
1095,6855167.8781579979
2,1, 8,21, 0, 9,30.00,40.00,SummerDesignDay
8,224396047.33241178
1095,9179512.960676654
2,1, 8,21, 0, 9,40.00,50.00,SummerDesignDay
8,225499310.5696427
1095,11396759.32299925
2,1, 8,21, 0, 9,50.00,60.00,SummerDesignDay
8,226595532.59974347
1095,6854341.237171457
2,1, 8,21, 0,10, 0.00,10.00,SummerDesignDay
8,227621039.7324324
1095,9831522.985341404
2,1, 8,21, 0,10,10.00,20.00,SummerDesignDay
8,228613743.730914
1095,12048275.419045784
2,1, 8,21, 0,10,20.00,30.00,SummerDesignDay
8,229637677.5649111
1095,7312060.485625937
2,1, 8,21, 0,10,30.00,40.00,SummerDesignDay
8,230604326.3445115
1095,11712971.35116441
2,1, 8,21, 0,10,40.00,50.00,SummerDesignDay
8,231563136.1808801
1095,10232723.87987849
2,1, 8,21, 0,10,50.00,60.00,SummerDesignDay
8,232497652.9218047
1095,7313302.502014337
2,1, 8,21, 0,11, 0.00,10.00,SummerDesignDay
8,233353247.22985668
1095,13525951.537439766
2,1, 8,21, 0,11,10.00,20.00,SummerDesignDay
8,234183068.4737065
1095,8420148.300115662
2,1, 8,21, 0,11,20.00,30.00,SummerDesignDay
8,234983649.48462574
1095,8834213.232069664
2,1, 8,21, 0,11,30.00,40.00,SummerDesignDay
8,235758416.53539396
1095,13112494.852474666
2,1, 8,21, 0,11,40.00,50.00,SummerDesignDay
8,236508014.6810962
1095,7311387.787560903
2,1, 8,21, 0,11,50.00,60.00,SummerDesignDay
8,237239316.71210296
1095,10650201.730912945
2,1, 8,21, 0,12, 0.00,10.00,SummerDesignDay
8,237807825.86093746
1095,12839646.258449415
2,1, 8,21, 0,12,10.00,20.00,SummerDesignDay
8,238351149.66274546
1095,9199937.884020389
2,1, 8,21, 0,12,20.00,30.00,SummerDesignDay
8,238871419.83119033
1095,15476528.32419687
2,1, 8,21, 0,12,30.00,40.00,SummerDesignDay
8,239364310.78246684
1095,9083575.997291096
2,1, 8,21, 0,12,40.00,50.00,SummerDesignDay
8,239835881.6344005
1095,13140185.029688139
2,1, 8,21, 0,12,50.00,60.00,SummerDesignDay
8,240290108.3986974
1095,12181026.577176519
2,1, 8,21, 0,13, 0.00,10.00,SummerDesignDay
8,240673919.39368
1095,11675978.978714452
2,1, 8,21, 0,13,10.00,20.00,SummerDesignDay
8,241053522.91394813
1095,16580921.12058178
2,1, 8,21, 0,13,20.00,30.00,SummerDesignDay
8,241429745.07036815
1095,10785027.388573429
2,1, 8,21, 0,13,30.00,40.00,SummerDesignDay
8,241795317.44590906
1095,14748038.10544088
2,1, 8,21, 0,13,40.00,50.00,SummerDesignDay
8,242146535.473648
1095,14679876.469729243
2,1, 8,21, 0,13,50.00,60.00,SummerDesignDay
8,242480868.8120446
1095,10853682.177184564
2,1, 8,21, 0,14, 0.00,10.00,SummerDesignDay
8,242713520.16212715
1095,16170807.616536675
2,1, 8,21, 0,14,10.00,20.00,SummerDesignDay
8,242922766.98815508
1095,10394899.42961355
2,1, 8,21, 0,14,20.00,30.00,SummerDesignDay
8,243105489.72234378
1095,13762831.084577688
2,1, 8,21, 0,14,30.00,40.00,SummerDesignDay
8,243266318.88355855
1095,13669206.864396649
2,1, 8,21, 0,14,40.00,50.00,SummerDesignDay
8,243403375.84838344
1095,10488466.272351239
2,1, 8,21, 0,14,50.00,60.00,SummerDesignDay
8,243513855.14406616
1095,16122020.57817416
2,1, 8,21, 0,15, 0.00,10.00,SummerDesignDay
8,243458765.92340655
1095,7660966.985274026
2,1, 8,21, 0,15,10.00,20.00,SummerDesignDay
8,243372760.2581662
1095,7022455.036715313
2,1, 8,21, 0,15,20.00,30.00,SummerDesignDay
8,243254542.96696014
1095,12731105.151351193
2,1, 8,21, 0,15,30.00,40.00,SummerDesignDay
8,243104773.27389307
1095,7677416.812669968
2,1, 8,21, 0,15,40.00,50.00,SummerDesignDay
8,242924642.94679956
1095,6856360.48150569
2,1, 8,21, 0,15,50.00,60.00,SummerDesignDay
8,242715617.63887037
1095,12184748.593246146
2,1, 8,21, 0,16, 0.00,10.00,SummerDesignDay
8,242312550.49244283
1095,8390525.123239754
2,1, 8,21, 0,16,10.00,20.00,SummerDesignDay
8,241886732.0444339
1095,6855874.6872798609
2,1, 8,21, 0,16,20.00,30.00,SummerDesignDay
8,241423561.98728759
1095,11472587.949472228
2,1, 8,21, 0,16,30.00,40.00,SummerDesignDay
8,240928575.15041644
1095,9102650.234958003
2,1, 8,21, 0,16,40.00,50.00,SummerDesignDay
8,240405110.49675174
1095,6855412.780069796
2,1, 8,21, 0,16,50.00,60.00,SummerDesignDay
8,239855554.192425
1095,10761003.3773844
2,1, 8,21, 0,17, 0.00,10.00,SummerDesignDay
8,239226614.6442277
1095,11061300.200630872
2,1, 8,21, 0,17,10.00,20.00,SummerDesignDay
8,238571957.7616144
1095,8662207.996530138
2,1, 8,21, 0,17,20.00,30.00,SummerDesignDay
8,237896910.78042234
1095,14719943.372290941
2,1, 8,21, 0,17,30.00,40.00,SummerDesignDay
8,237203493.66665233
1095,7966247.961103078
2,1, 8,21, 0,17,40.00,50.00,SummerDesignDay
8,236486798.29936473
1095,11988791.568796607
2,1, 8,21, 0,17,50.00,60.00,SummerDesignDay
8,235760659.8858213
1095,11523657.804198742
2,1, 8,21, 0,18, 0.00,10.00,SummerDesignDay
8,234970285.18708287
1095,6233682.955748082
2,1, 8,21, 0,18,10.00,20.00,SummerDesignDay
8,234172408.97155313
1095,6095477.668695766
2,1, 8,21, 0,18,20.00,30.00,SummerDesignDay
8,233363315.90007214
1095,8021092.766648226
2,1, 8,21, 0,18,30.00,40.00,SummerDesignDay
8,232543621.15050067
1095,9703937.3582272
2,1, 8,21, 0,18,40.00,50.00,SummerDesignDay
8,231710369.89904
1095,6664770.785867312
2,1, 8,21, 0,18,50.00,60.00,SummerDesignDay
8,230863725.39028938
1095,6091688.6613706
2,1, 8,21, 0,19, 0.00,10.00,SummerDesignDay
8,229865558.73694778
1095,6093163.999139318
2,1, 8,21, 0,19,10.00,20.00,SummerDesignDay
8,228848252.4747074
1095,6096738.625789722
2,1, 8,21, 0,19,20.00,30.00,SummerDesignDay
8,227833461.37875725
1095,8977038.008568977
2,1, 8,21, 0,19,30.00,40.00,SummerDesignDay
8,226771930.44229243
1095,9319627.101530847
2,1, 8,21, 0,19,40.00,50.00,SummerDesignDay
8,225758484.47398723
1095,6092312.7880229619
2,1, 8,21, 0,19,50.00,60.00,SummerDesignDay
8,224830892.28197585
1095,6091875.869285548
2,1, 8,21, 0,20, 0.00,10.00,SummerDesignDay
8,224143272.08649648
1095,5512372.293246948
2,1, 8,21, 0,20,10.00,20.00,SummerDesignDay
8,223543566.29370717
1095,5454584.674294322
2,1, 8,21, 0,20,20.00,30.00,SummerDesignDay
8,222947490.71410526
1095,5455376.910272655
2,1, 8,21, 0,20,30.00,40.00,SummerDesignDay
8,222348357.6958984
1095,5455859.403553166
2,1, 8,21, 0,20,40.00,50.00,SummerDesignDay
8,221795648.76113735
1095,5456153.612466076
2,1, 8,21, 0,20,50.00,60.00,SummerDesignDay
8,221283522.77953939
1095,5456368.661502143
2,1, 8,21, 0,21, 0.00,10.00,SummerDesignDay
8,220856615.7932097
1095,5710418.455128666
2,1, 8,21, 0,21,10.00,20.00,SummerDesignDay
8,220452672.67074786
1095,5739885.511945451
2,1, 8,21, 0,21,20.00,30.00,SummerDesignDay
8,220067259.44643817
1095,5739493.004872575
2,1, 8,21, 0,21,30.00,40.00,SummerDesignDay
8,219696440.00288985
1095,5739760.98132563
2,1, 8,21, 0,21,40.00,50.00,SummerDesignDay
8,219336914.89104487
1095,5740455.140143415
2,1, 8,21, 0,21,50.00,60.00,SummerDesignDay
8,218986086.77078978
1095,5741335.084979378
2,1, 8,21, 0,22, 0.00,10.00,SummerDesignDay
8,218645314.24786768
1095,5248546.405059623
2,1, 8,21, 0,22,10.00,20.00,SummerDesignDay
8,218308401.00826413
1095,5198531.190033783
2,1, 8,21, 0,22,20.00,30.00,SummerDesignDay
8,217974197.21530513
1095,4442784.378092065
2,1, 8,21, 0,22,30.00,40.00,SummerDesignDay
8,217641569.79835276
1095,758107.2989694062
2,1, 8,21, 0,22,40.00,50.00,SummerDesignDay
8,217310939.89733164
1095,5199603.170421996
2,1, 8,21, 0,22,50.00,60.00,SummerDesignDay
8,216981830.70848827
1095,5195552.87694109
2,1, 8,21, 0,23, 0.00,10.00,SummerDesignDay
8,216702181.24288876
1095,0.0
2,1, 8,21, 0,23,10.00,20.00,SummerDesignDay
8,216433181.22688503
1095,0.0
2,1, 8,21, 0,23,20.00,30.00,SummerDesignDay
8,216166738.92061536
1095,0.0
2,1, 8,21, 0,23,30.00,40.00,SummerDesignDay
8,215902616.42138387
1095,0.0
2,1, 8,21, 0,23,40.00,50.00,SummerDesignDay
8,215640449.19138877
1095,0.0
2,1, 8,21, 0,23,50.00,60.00,SummerDesignDay
8,215379864.1229505
1095,0.0
2,1, 8,21, 0,24, 0.00,10.00,SummerDesignDay
8,215120532.09818007
1095,0.0
2,1, 8,21, 0,24,10.00,20.00,SummerDesignDay
8,214862179.4483373
1095,0.0
2,1, 8,21, 0,24,20.00,30.00,SummerDesignDay
8,214604585.65266863
1095,0.0
2,1, 8,21, 0,24,30.00,40.00,SummerDesignDay
8,214347577.47038789
1095,0.0
2,1, 8,21, 0,24,40.00,50.00,SummerDesignDay
8,214091020.94753815
1095,0.0
2,1, 8,21, 0,24,50.00,60.00,SummerDesignDay
8,213834809.23102028
1095,0.0
1,CLIMATE ZONE 3 ANN CLG .4% CONDNS WB=>MDB HVAC Sizing Pass 1,  37.70,-122.20,  -8.00,   2.00
2,1, 8,21, 0, 1, 0.00,10.00,SummerDesignDay
8,210283821.5653077
1095,0.0
2,1, 8,21, 0, 1,10.00,20.00,SummerDesignDay
8,210011985.68434707
1095,0.0
2,1, 8,21, 0, 1,20.00,30.00,SummerDesignDay
8,209740133.06908975
1095,0.0
2,1, 8,21, 0, 1,30.00,40.00,SummerDesignDay
8,209468404.1461764
1095,0.0
2,1, 8,21, 0, 1,40.00,50.00,SummerDesignDay
8,209196675.43412299
1095,0.0
2,1, 8,21, 0, 1,50.00,60.00,SummerDesignDay
8,208924739.40198747
1095,0.0
2,1, 8,21, 0, 2, 0.00,10.00,SummerDesignDay
8,208724010.52437807
1095,0.0
2,1, 8,21, 0, 2,10.00,20.00,SummerDesignDay
8,208525136.297809
1095,0.0
2,1, 8,21, 0, 2,20.00,30.00,SummerDesignDay
8,208328409.92039807
1095,0.0
2,1, 8,21, 0, 2,30.00,40.00,SummerDesignDay
8,208133606.89363078
1095,0.0
2,1, 8,21, 0, 2,40.00,50.00,SummerDesignDay
8,207940325.68683667
1095,0.0
2,1, 8,21, 0, 2,50.00,60.00,SummerDesignDay
8,207748109.40651614
1095,0.0
2,1, 8,21, 0, 3, 0.00,10.00,SummerDesignDay
8,207593335.98680035
1095,0.0
2,1, 8,21, 0, 3,10.00,20.00,SummerDesignDay
8,207439660.5579622
1095,0.0
2,1, 8,21, 0, 3,20.00,30.00,SummerDesignDay
8,207287947.91352449
1095,0.0
2,1, 8,21, 0, 3,30.00,40.00,SummerDesignDay
8,207137190.00606517
1095,0.0
2,1, 8,21, 0, 3,40.00,50.00,SummerDesignDay
8,206987849.9211479
1095,0.0
2,1, 8,21, 0, 3,50.00,60.00,SummerDesignDay
8,206838898.68813459
1095,0.0
2,1, 8,21, 0, 4, 0.00,10.00,SummerDesignDay
8,206690578.2353824
1095,0.0
2,1, 8,21, 0, 4,10.00,20.00,SummerDesignDay
8,206542282.43679405
1095,0.0
2,1, 8,21, 0, 4,20.00,30.00,SummerDesignDay
8,206394354.32413657
1095,0.0
2,1, 8,21, 0, 4,30.00,40.00,SummerDesignDay
8,206246212.8081771
1095,0.0
2,1, 8,21, 0, 4,40.00,50.00,SummerDesignDay
8,206098264.7407773
1095,0.0
2,1, 8,21, 0, 4,50.00,60.00,SummerDesignDay
8,205949975.80414579
1095,0.0
2,1, 8,21, 0, 5, 0.00,10.00,SummerDesignDay
8,205839258.07411299
1095,0.0
2,1, 8,21, 0, 5,10.00,20.00,SummerDesignDay
8,205729394.814688
1095,4324610.510766506
2,1, 8,21, 0, 5,20.00,30.00,SummerDesignDay
8,205620697.94461117
1095,0.0
2,1, 8,21, 0, 5,30.00,40.00,SummerDesignDay
8,205513078.8120766
1095,0.0
2,1, 8,21, 0, 5,40.00,50.00,SummerDesignDay
8,205405858.02708105
1095,0.0
2,1, 8,21, 0, 5,50.00,60.00,SummerDesignDay
8,205300310.9140094
1095,0.0
2,1, 8,21, 0, 6, 0.00,10.00,SummerDesignDay
8,205345724.5307688
1095,0.0
2,1, 8,21, 0, 6,10.00,20.00,SummerDesignDay
8,205396682.29309435
1095,0.0
2,1, 8,21, 0, 6,20.00,30.00,SummerDesignDay
8,205452876.05523286
1095,0.0
2,1, 8,21, 0, 6,30.00,40.00,SummerDesignDay
8,205780056.63300009
1095,0.0
2,1, 8,21, 0, 6,40.00,50.00,SummerDesignDay
8,206199352.25661827
1095,0.0
2,1, 8,21, 0, 6,50.00,60.00,SummerDesignDay
8,206686316.46225906
1095,0.0
2,1, 8,21, 0, 7, 0.00,10.00,SummerDesignDay
8,207371365.815345
1095,0.0
2,1, 8,21, 0, 7,10.00,20.00,SummerDesignDay
8,208125478.95789949
1095,0.0
2,1, 8,21, 0, 7,20.00,30.00,SummerDesignDay
8,208926317.99038107
1095,0.0
2,1, 8,21, 0, 7,30.00,40.00,SummerDesignDay
8,209766121.50199346
1095,0.0
2,1, 8,21, 0, 7,40.00,50.00,SummerDesignDay
8,210631745.34303997
1095,0.0
2,1, 8,21, 0, 7,50.00,60.00,SummerDesignDay
8,211513715.0628931
1095,0.0
2,1, 8,21, 0, 8, 0.00,10.00,SummerDesignDay
8,212761281.73748068
1095,10918647.610620927
2,1, 8,21, 0, 8,10.00,20.00,SummerDesignDay
8,214013285.05830468
1095,10584787.187112224
2,1, 8,21, 0, 8,20.00,30.00,SummerDesignDay
8,215258320.11109788
1095,6137134.202986961
2,1, 8,21, 0, 8,30.00,40.00,SummerDesignDay
8,216466946.46153993
1095,5868122.36021348
2,1, 8,21, 0, 8,40.00,50.00,SummerDesignDay
8,217606744.09282077
1095,5777149.849159312
2,1, 8,21, 0, 8,50.00,60.00,SummerDesignDay
8,218574166.74535359
1095,5751440.360296759
2,1, 8,21, 0, 9, 0.00,10.00,SummerDesignDay
8,219787106.62535537
1095,9699585.49778386
2,1, 8,21, 0, 9,10.00,20.00,SummerDesignDay
8,221024043.43485234
1095,10693254.890671559
2,1, 8,21, 0, 9,20.00,30.00,SummerDesignDay
8,222271195.00764049
1095,6855167.8781579979
2,1, 8,21, 0, 9,30.00,40.00,SummerDesignDay
8,223517310.12897713
1095,9179512.960676654
2,1, 8,21, 0, 9,40.00,50.00,SummerDesignDay
8,224754588.1655404
1095,11396759.32299925
2,1, 8,21, 0, 9,50.00,60.00,SummerDesignDay
8,225976390.94092525
1095,6854341.237171457
2,1, 8,21, 0,10, 0.00,10.00,SummerDesignDay
8,227112824.97536949
1095,9831522.985341404
2,1, 8,21, 0,10,10.00,20.00,SummerDesignDay
8,228230233.37420158
1095,12048275.419045784
2,1, 8,21, 0,10,20.00,30.00,SummerDesignDay
8,229321132.89040429
1095,7312060.485625937
2,1, 8,21, 0,10,30.00,40.00,SummerDesignDay
8,230383809.3601713
1095,11712971.35116441
2,1, 8,21, 0,10,40.00,50.00,SummerDesignDay
8,231416904.50580187
1095,10232723.87987849
2,1, 8,21, 0,10,50.00,60.00,SummerDesignDay
8,232419544.20902948
1095,7313302.502014337
2,1, 8,21, 0,11, 0.00,10.00,SummerDesignDay
8,233332830.31362493
1095,13525951.537439766
2,1, 8,21, 0,11,10.00,20.00,SummerDesignDay
8,234188167.72130425
1095,8420148.300115662
2,1, 8,21, 0,11,20.00,30.00,SummerDesignDay
8,235065293.17875899
1095,8834213.232069664
2,1, 8,21, 0,11,30.00,40.00,SummerDesignDay
8,235867902.45454274
1095,13112494.852474666
2,1, 8,21, 0,11,40.00,50.00,SummerDesignDay
8,236655730.68138603
1095,7311387.787560903
2,1, 8,21, 0,11,50.00,60.00,SummerDesignDay
8,237411724.48732076
1095,10650201.730912945
2,1, 8,21, 0,12, 0.00,10.00,SummerDesignDay
8,237997244.9632064
1095,12839646.258449415
2,1, 8,21, 0,12,10.00,20.00,SummerDesignDay
8,238562122.32723744
1095,9199937.884020389
2,1, 8,21, 0,12,20.00,30.00,SummerDesignDay
8,239091561.88354213
1095,15476528.32419687
2,1, 8,21, 0,12,30.00,40.00,SummerDesignDay
8,239594538.38501803
1095,9083575.997291096
2,1, 8,21, 0,12,40.00,50.00,SummerDesignDay
8,240073878.52663694
1095,13140185.029688139
2,1, 8,21, 0,12,50.00,60.00,SummerDesignDay
8,240534061.83303965
1095,12181026.577176519
2,1, 8,21, 0,13, 0.00,10.00,SummerDesignDay
8,240920443.05860657
1095,11675978.978714452
2,1, 8,21, 0,13,10.00,20.00,SummerDesignDay
8,241302002.3426717
1095,16580921.12058178
2,1, 8,21, 0,13,20.00,30.00,SummerDesignDay
8,241679870.97891457
1095,10785027.388573429
2,1, 8,21, 0,13,30.00,40.00,SummerDesignDay
8,242045921.22867499
1095,14748038.10544088
2,1, 8,21, 0,13,40.00,50.00,SummerDesignDay
8,242395902.4842925
1095,14679876.469729243
2,1, 8,21, 0,13,50.00,60.00,SummerDesignDay
8,242727529.50620837
1095,10853682.177184564
2,1, 8,21, 0,14, 0.00,10.00,SummerDesignDay
8,242953477.81731133
1095,16170807.616536675
2,1, 8,21, 0,14,10.00,20.00,SummerDesignDay
8,243154411.917365
1095,10394899.42961355
2,1, 8,21, 0,14,20.00,30.00,SummerDesignDay
8,243325369.92927645
1095,13762831.084577688
2,1, 8,21, 0,14,30.00,40.00,SummerDesignDay
8,243469697.47067384
1095,13669206.864396649
2,1, 8,21, 0,14,40.00,50.00,SummerDesignDay
8,243586763.85479669
1095,10488466.272351239
2,1, 8,21, 0,14,50.00,60.00,SummerDesignDay
8,243679263.38054163
1095,16122020.57817416
2,1, 8,21, 0,15, 0.00,10.00,SummerDesignDay
8,243600776.21212099
1095,7660966.985274026
2,1, 8,21, 0,15,10.00,20.00,SummerDesignDay
8,243489579.19593073
1095,7022455.036715313
2,1, 8,21, 0,15,20.00,30.00,SummerDesignDay
8,243344168.4185803
1095,12731105.151351193
2,1, 8,21, 0,15,30.00,40.00,SummerDesignDay
8,243165396.9512364
1095,7677416.812669968
2,1, 8,21, 0,15,40.00,50.00,SummerDesignDay
8,242954910.71778009
1095,6856360.48150569
2,1, 8,21, 0,15,50.00,60.00,SummerDesignDay
8,242716056.51465977
1095,12184748.593246146
2,1, 8,21, 0,16, 0.00,10.00,SummerDesignDay
8,242275625.7386992
1095,8390525.123239754
2,1, 8,21, 0,16,10.00,20.00,SummerDesignDay
8,241805271.1572218
1095,6855874.6872798609
2,1, 8,21, 0,16,20.00,30.00,SummerDesignDay
8,241295270.39538349
1095,11472587.949472228
2,1, 8,21, 0,16,30.00,40.00,SummerDesignDay
8,240752610.58606876
1095,9102650.234958003
2,1, 8,21, 0,16,40.00,50.00,SummerDesignDay
8,240179642.78193135
1095,6855412.780069796
2,1, 8,21, 0,16,50.00,60.00,SummerDesignDay
8,239582333.7507385
1095,10761003.3773844
2,1, 8,21, 0,17, 0.00,10.00,SummerDesignDay
8,238895641.5915439
1095,11061300.200630872
2,1, 8,21, 0,17,10.00,20.00,SummerDesignDay
8,238185276.96534357
1095,8662207.996530138
2,1, 8,21, 0,17,20.00,30.00,SummerDesignDay
8,237453311.67039619
1095,14719943.372290941
2,1, 8,21, 0,17,30.00,40.00,SummerDesignDay
8,236698387.10756258
1095,7966247.961103078
2,1, 8,21, 0,17,40.00,50.00,SummerDesignDay
8,235920597.0628034
1095,11988791.568796607
2,1, 8,21, 0,17,50.00,60.00,SummerDesignDay
8,235157148.98708017
1095,11523657.804198742
2,1, 8,21, 0,18, 0.00,10.00,SummerDesignDay
8,234270956.08106933
1095,6233682.955748082
2,1, 8,21, 0,18,10.00,20.00,SummerDesignDay
8,233420037.71918766
1095,6095477.668695766
2,1, 8,21, 0,18,20.00,30.00,SummerDesignDay
8,232541057.205064
1095,8021092.766648226
2,1, 8,21, 0,18,30.00,40.00,SummerDesignDay
8,231652745.75645463
1095,9703937.3582272
2,1, 8,21, 0,18,40.00,50.00,SummerDesignDay
8,230751039.18823345
1095,6664770.785867312
2,1, 8,21, 0,18,50.00,60.00,SummerDesignDay
8,229836001.84876088
1095,6091688.6613706
2,1, 8,21, 0,19, 0.00,10.00,SummerDesignDay
8,228759135.97855834
1095,6093163.999139318
2,1, 8,21, 0,19,10.00,20.00,SummerDesignDay
8,227669380.2701063
1095,6096738.625789722
2,1, 8,21, 0,19,20.00,30.00,SummerDesignDay
8,226565114.2023207
1095,8977038.008568977
2,1, 8,21, 0,19,30.00,40.00,SummerDesignDay
8,225445138.0476783
1095,9319627.101530847
2,1, 8,21, 0,19,40.00,50.00,SummerDesignDay
8,224361773.29866997
1095,6092312.7880229619
2,1, 8,21, 0,19,50.00,60.00,SummerDesignDay
8,223391163.22846435
1095,6091875.869285548
2,1, 8,21, 0,20, 0.00,10.00,SummerDesignDay
8,222556802.31048019
1095,5512372.293246948
2,1, 8,21, 0,20,10.00,20.00,SummerDesignDay
8,221737152.37830846
1095,5454584.674294322
2,1, 8,21, 0,20,20.00,30.00,SummerDesignDay
8,220993052.4883829
1095,5455376.910272655
2,1, 8,21, 0,20,30.00,40.00,SummerDesignDay
8,220316857.25761194
1095,5455859.403553166
2,1, 8,21, 0,20,40.00,50.00,SummerDesignDay
8,219697288.66969008
1095,5456153.612466076
2,1, 8,21, 0,20,50.00,60.00,SummerDesignDay
8,219122255.51995618
1095,5456368.661502143
2,1, 8,21, 0,21, 0.00,10.00,SummerDesignDay
8,218644346.9993088
1095,5710418.455128666
2,1, 8,21, 0,21,10.00,20.00,SummerDesignDay
8,218192155.68711368
1095,5739885.511945451
2,1, 8,21, 0,21,20.00,30.00,SummerDesignDay
8,217760317.9432057
1095,5739493.004872575
2,1, 8,21, 0,21,30.00,40.00,SummerDesignDay
8,217344084.39611376
1095,5739760.98132563
2,1, 8,21, 0,21,40.00,50.00,SummerDesignDay
8,216939578.5900686
1095,5740455.140143415
2,1, 8,21, 0,21,50.00,60.00,SummerDesignDay
8,216543704.42814965
1095,5741335.084979378
2,1, 8,21, 0,22, 0.00,10.00,SummerDesignDay
8,216154093.08029727
1095,5248546.405059623
2,1, 8,21, 0,22,10.00,20.00,SummerDesignDay
8,215772853.49523375
1095,5198531.190033783
2,1, 8,21, 0,22,20.00,30.00,SummerDesignDay
8,215393246.119309
1095,4442784.378092065
2,1, 8,21, 0,22,30.00,40.00,SummerDesignDay
8,215014270.19237245
1095,758107.2989694062
2,1, 8,21, 0,22,40.00,50.00,SummerDesignDay
8,214636120.8017201
1095,5199603.170421996
2,1, 8,21, 0,22,50.00,60.00,SummerDesignDay
8,214258422.3688253
1095,5195552.87694109
2,1, 8,21, 0,23, 0.00,10.00,SummerDesignDay
8,213939413.1166611
1095,0.0
2,1, 8,21, 0,23,10.00,20.00,SummerDesignDay
8,213629781.11209876
1095,0.0
2,1, 8,21, 0,23,20.00,30.00,SummerDesignDay
8,213321024.10938383
1095,0.0
2,1, 8,21, 0,23,30.00,40.00,SummerDesignDay
8,213013854.76389749
1095,0.0
2,1, 8,21, 0,23,40.00,50.00,SummerDesignDay
8,212707884.8948602
1095,0.0
2,1, 8,21, 0,23,50.00,60.00,SummerDesignDay
8,212402716.13193856
1095,0.0
2,1, 8,21, 0,24, 0.00,10.00,SummerDesignDay
8,212097985.0312715
1095,0.0
2,1, 8,21, 0,24,10.00,20.00,SummerDesignDay
8,211793376.0176518
1095,0.0
2,1, 8,21, 0,24,20.00,30.00,SummerDesignDay
8,211488626.89250694
1095,0.0
2,1, 8,21, 0,24,30.00,40.00,SummerDesignDay
8,211183572.55447007
1095,0.0
2,1, 8,21, 0,24,40.00,50.00,SummerDesignDay
8,210878084.28233145
1095,0.0
2,1, 8,21, 0,24,50.00,60.00,SummerDesignDay
8,210572119.14696116
1095,0.0
1,CLIMATE ZONE 3 ANN HTG 99.6% CONDNS DB HVAC Sizing Pass 1,  37.70,-122.20,  -8.00,   2.00
2,1, 1,21, 0, 1, 0.00,10.00,WinterDesignDay
8,11329914.759368547
1095,264342846.5789578
2,1, 1,21, 0, 1,10.00,20.00,WinterDesignDay
8,11329914.759368547
1095,264343175.1877997
2,1, 1,21, 0, 1,20.00,30.00,WinterDesignDay
8,11329914.759368547
1095,264343501.1984519
2,1, 1,21, 0, 1,30.00,40.00,WinterDesignDay
8,11329914.759368547
1095,264343824.63144256
2,1, 1,21, 0, 1,40.00,50.00,WinterDesignDay
8,11329914.759368547
1095,264344145.50714094
2,1, 1,21, 0, 1,50.00,60.00,WinterDesignDay
8,11329914.759368547
1095,264344463.84574718
2,1, 1,21, 0, 2, 0.00,10.00,WinterDesignDay
8,11329914.759368547
1095,264344779.6673129
2,1, 1,21, 0, 2,10.00,20.00,WinterDesignDay
8,11329914.759368547
1095,264345092.99172566
2,1, 1,21, 0, 2,20.00,30.00,WinterDesignDay
8,11329914.759368547
1095,264345403.8387109
2,1, 1,21, 0, 2,30.00,40.00,WinterDesignDay
8,11329914.759368547
1095,264345712.22785435
2,1, 1,21, 0, 2,40.00,50.00,WinterDesignDay
8,11329914.759368547
1095,264346018.17856968
2,1, 1,21, 0, 2,50.00,60.00,WinterDesignDay
8,11329914.759368547
1095,264346321.71012534
2,1, 1,21, 0, 3, 0.00,10.00,WinterDesignDay
8,11329914.759368547
1095,264346622.84164248
2,1, 1,21, 0, 3,10.00,20.00,WinterDesignDay
8,11329914.759368547
1095,264346921.59208025
2,1, 1,21, 0, 3,20.00,30.00,WinterDesignDay
8,11329914.759368547
1095,264347217.9802558
2,1, 1,21, 0, 3,30.00,40.00,WinterDesignDay
8,11329914.759368547
1095,264347512.02483953
2,1, 1,21, 0, 3,40.00,50.00,WinterDesignDay
8,11329914.759368547
1095,264347803.74434725
2,1, 1,21, 0, 3,50.00,60.00,WinterDesignDay
8,11329914.759368547
1095,264348093.15715257
2,1, 1,21, 0, 4, 0.00,10.00,WinterDesignDay
8,11329914.759368547
1095,264348380.28148628
2,1, 1,21, 0, 4,10.00,20.00,WinterDesignDay
8,11329914.759368547
1095,264348665.13543073
2,1, 1,21, 0, 4,20.00,30.00,WinterDesignDay
8,11329914.759368547
1095,264348947.73692904
2,1, 1,21, 0, 4,30.00,40.00,WinterDesignDay
8,11329914.759368547
1095,264349228.10378377
2,1, 1,21, 0, 4,40.00,50.00,WinterDesignDay
8,11329914.759368547
1095,264349506.25364936
2,1, 1,21, 0, 4,50.00,60.00,WinterDesignDay
8,11329914.759368547
1095,264349782.2040526
2,1, 1,21, 0, 5, 0.00,10.00,WinterDesignDay
8,11329914.759368547
1095,264350055.97237016
2,1, 1,21, 0, 5,10.00,20.00,WinterDesignDay
8,11329914.759368547
1095,268674938.0866192
2,1, 1,21, 0, 5,20.00,30.00,WinterDesignDay
8,11329914.759368547
1095,264350597.03160528
2,1, 1,21, 0, 5,30.00,40.00,WinterDesignDay
8,11329914.759368547
1095,264350864.35660336
2,1, 1,21, 0, 5,40.00,50.00,WinterDesignDay
8,11329914.759368547
1095,264351129.56768648
2,1, 1,21, 0, 5,50.00,60.00,WinterDesignDay
8,11329914.759368547
1095,264351392.68156389
2,1, 1,21, 0, 6, 0.00,10.00,WinterDesignDay
8,11329914.759368547
1095,264351653.71480725
2,1, 1,21, 0, 6,10.00,20.00,WinterDesignDay
8,11329914.759368547
1095,264351912.68386636
2,1, 1,21, 0, 6,20.00,30.00,WinterDesignDay
8,11329914.759368547
1095,264352169.6050497
2,1, 1,21, 0, 6,30.00,40.00,WinterDesignDay
8,11329914.759368547
1095,264352424.4945484
2,1, 1,21, 0, 6,40.00,50.00,WinterDesignDay
8,11329914.759368547
1095,264352677.36842136
2,1, 1,21, 0, 6,50.00,60.00,WinterDesignDay
8,11329914.759368547
1095,264352928.24259196
2,1, 1,21, 0, 7, 0.00,10.00,WinterDesignDay
8,11329914.759368547
1095,264353177.13287465
2,1, 1,21, 0, 7,10.00,20.00,WinterDesignDay
8,11329914.759368547
1095,264353424.05494375
2,1, 1,21, 0, 7,20.00,30.00,WinterDesignDay
8,11329914.759368547
1095,264353669.02435939
2,1, 1,21, 0, 7,30.00,40.00,WinterDesignDay
8,11329914.759368547
1095,264353912.05655778
2,1, 1,21, 0, 7,40.00,50.00,WinterDesignDay
8,11329914.759368547
1095,264354153.16684637
2,1, 1,21, 0, 7,50.00,60.00,WinterDesignDay
8,11329914.759368547
1095,264354392.37041907
2,1, 1,21, 0, 8, 0.00,10.00,WinterDesignDay
8,11338160.391480135
1095,275712606.2040901
2,1, 1,21, 0, 8,10.00,20.00,WinterDesignDay
8,11338160.391480135
1095,275073202.7550557
2,1, 1,21, 0, 8,20.00,30.00,WinterDesignDay
8,11338160.391480135
1095,270632594.7859697
2,1, 1,21, 0, 8,30.00,40.00,WinterDesignDay
8,11338160.391480135
1095,270352348.75610896
2,1, 1,21, 0, 8,40.00,50.00,WinterDesignDay
8,11338160.391480135
1095,270258630.06383767
2,1, 1,21, 0, 8,50.00,60.00,WinterDesignDay
8,11338160.391480135
1095,270954001.08509597
2,1, 1,21, 0, 9, 0.00,10.00,WinterDesignDay
8,11338160.391480135
1095,277618143.47109666
2,1, 1,21, 0, 9,10.00,20.00,WinterDesignDay
8,11338160.391480135
1095,271579357.47673466
2,1, 1,21, 0, 9,20.00,30.00,WinterDesignDay
8,11338160.391480135
1095,273825691.88680806
2,1, 1,21, 0, 9,30.00,40.00,WinterDesignDay
8,11338160.391480135
1095,276561819.82321396
2,1, 1,21, 0, 9,40.00,50.00,WinterDesignDay
8,11338160.391480135
1095,271577579.52415147
2,1, 1,21, 0, 9,50.00,60.00,WinterDesignDay
8,11338160.391480135
1095,275247389.2566826
2,1, 1,21, 0,10, 0.00,10.00,WinterDesignDay
8,11338160.391480135
1095,275918171.8936018
2,1, 1,21, 0,10,10.00,20.00,WinterDesignDay
8,11338160.391480135
1095,272485065.78707399
2,1, 1,21, 0,10,20.00,30.00,WinterDesignDay
8,11338160.391480135
1095,279031164.20766869
2,1, 1,21, 0,10,30.00,40.00,WinterDesignDay
8,11338160.391480135
1095,272781257.3712071