Program Version,EnergyPlus, Version 9.4.0-998c4b761e, YMD=2021.06.25 08:51
1,5,Environment Title[],Latitude[deg],Longitude[deg],Time Zone[],Elevation[m]
2,8,Day of Simulation[],Month[],Day of Month[],DST Indicator[1=yes 0=no],Hour[],StartMinute[],EndMinute[],DayType
3,5,Cumulative Day of Simulation[],Month[],Day of Month[],DST Indicator[1=yes 0=no],DayType  ! When Daily Report Variables Requested
4,2,Cumulative Days of Simulation[],Month[]  ! When Monthly Report Variables Requested
5,1,Cumulative Days of Simulation[] ! When Run Period Report Variables Requested
6,1,Calendar Year of Simulation[] ! When Annual Report Variables Requested
8,1,Electricity:Facility [J] !TimeStep
1095,1,NaturalGas:Facility [J] !TimeStep
End of Data Dictionary
1,CLIMATE ZONE 3 ANN CLG .4% CONDNS DB=>MWB HVAC Sizing Pass 1,  37.70,-122.20,  -8.00,   2.00
2,1, 8,21, 0, 1, 0.00,10.00,SummerDesignDay
8,7743980.286902095
1095,0.0
2,1, 8,21, 0, 1,10.00,20.00,SummerDesignDay
8,7744769.482696409
1095,0.0
2,1, 8,21, 0, 1,20.00,30.00,SummerDesignDay
8,7745296.736424012
1095,0.0
2,1, 8,21, 0, 1,30.00,40.00,SummerDesignDay
8,7745532.011221886
1095,0.0
2,1, 8,21, 0, 1,40.00,50.00,SummerDesignDay
8,7745559.684982159
1095,0.0
2,1, 8,21, 0, 1,50.00,60.00,SummerDesignDay
8,7745411.42934146
1095,0.0
2,1, 8,21, 0, 2, 0.00,10.00,SummerDesignDay
8,7745389.001876014
1095,0.0
2,1, 8,21, 0, 2,10.00,20.00,SummerDesignDay
8,7745239.303248567
1095,0.0
2,1, 8,21, 0, 2,20.00,30.00,SummerDesignDay
8,7744982.189351224
1095,0.0
2,1, 8,21, 0, 2,30.00,40.00,SummerDesignDay
8,7744631.625572399
1095,447749.53770507717
2,1, 8,21, 0, 2,40.00,50.00,SummerDesignDay
8,7744203.586238273
1095,521177.76625947616
2,1, 8,21, 0, 2,50.00,60.00,SummerDesignDay
8,7743712.905069432
1095,521177.76625947616
2,1, 8,21, 0, 3, 0.00,10.00,SummerDesignDay
8,7743301.864552157
1095,521177.76625947616
2,1, 8,21, 0, 3,10.00,20.00,SummerDesignDay
8,7742841.462123759
1095,394249.7654536767
2,1, 8,21, 0, 3,20.00,30.00,SummerDesignDay
8,7742338.535104555
1095,0.0
2,1, 8,21, 0, 3,30.00,40.00,SummerDesignDay
8,7741797.935081775
1095,0.0
2,1, 8,21, 0, 3,40.00,50.00,SummerDesignDay
8,7741223.435108855
1095,0.0
2,1, 8,21, 0, 3,50.00,60.00,SummerDesignDay
8,7740618.177936294
1095,0.0
2,1, 8,21, 0, 4, 0.00,10.00,SummerDesignDay
8,7739984.885868578
1095,0.0
2,1, 8,21, 0, 4,10.00,20.00,SummerDesignDay
8,7739326.013477153
1095,0.0
2,1, 8,21, 0, 4,20.00,30.00,SummerDesignDay
8,7738643.845553385
1095,0.0
2,1, 8,21, 0, 4,30.00,40.00,SummerDesignDay
8,7737940.647652352
1095,0.0
2,1, 8,21, 0, 4,40.00,50.00,SummerDesignDay
8,7737219.056571341
1095,53478.98059012607
2,1, 8,21, 0, 4,50.00,60.00,SummerDesignDay
8,7736480.204874085
1095,521177.76625947616
2,1, 8,21, 0, 5, 0.00,10.00,SummerDesignDay
8,7735858.19487574
1095,521177.76625947616
2,1, 8,21, 0, 5,10.00,20.00,SummerDesignDay
8,7735225.104473912
1095,521177.76625947616
2,1, 8,21, 0, 5,20.00,30.00,SummerDesignDay
8,7734584.329483017
1095,521177.76625947616
2,1, 8,21, 0, 5,30.00,40.00,SummerDesignDay
8,7733937.651503707
1095,267342.2115257992
2,1, 8,21, 0, 5,40.00,50.00,SummerDesignDay
8,7733286.130585881
1095,0.0
2,1, 8,21, 0, 5,50.00,60.00,SummerDesignDay
8,7732630.433653704
1095,0.0
2,1, 8,21, 0, 6, 0.00,10.00,SummerDesignDay
8,7732524.636832739
1095,0.0
2,1, 8,21, 0, 6,10.00,20.00,SummerDesignDay
8,7732443.023974734
1095,0.0
2,1, 8,21, 0, 6,20.00,30.00,SummerDesignDay
8,7732394.502231357
1095,0.0
2,1, 8,21, 0, 6,30.00,40.00,SummerDesignDay
8,7732632.510811244
1095,0.0
2,1, 8,21, 0, 6,40.00,50.00,SummerDesignDay
8,7733609.431440427
1095,0.0
2,1, 8,21, 0, 6,50.00,60.00,SummerDesignDay
8,7735487.303460562
1095,0.0
2,1, 8,21, 0, 7, 0.00,10.00,SummerDesignDay
8,9439720.813641437
1095,180368.04657774897
2,1, 8,21, 0, 7,10.00,20.00,SummerDesignDay
8,9231538.836927092
1095,521177.7662594761
2,1, 8,21, 0, 7,20.00,30.00,SummerDesignDay
8,9091502.561652162
1095,521177.76625947616
2,1, 8,21, 0, 7,30.00,40.00,SummerDesignDay
8,8988786.752061146
1095,521177.76625947616
2,1, 8,21, 0, 7,40.00,50.00,SummerDesignDay
8,8989548.868782556
1095,521177.76625947616
2,1, 8,21, 0, 7,50.00,60.00,SummerDesignDay
8,9000217.49874102
1095,140418.36946629355
2,1, 8,21, 0, 8, 0.00,10.00,SummerDesignDay
8,9041996.08778411
1095,0.0
2,1, 8,21, 0, 8,10.00,20.00,SummerDesignDay
8,9090745.039097362
1095,0.0
2,1, 8,21, 0, 8,20.00,30.00,SummerDesignDay
8,9145703.773606049
1095,0.0
2,1, 8,21, 0, 8,30.00,40.00,SummerDesignDay
8,9206500.477242457
1095,396342.79865791197
2,1, 8,21, 0, 8,40.00,50.00,SummerDesignDay
8,9270980.451804894
1095,521177.76625947616
2,1, 8,21, 0, 8,50.00,60.00,SummerDesignDay
8,9338443.96798344
1095,521177.76625947616
2,1, 8,21, 0, 9, 0.00,10.00,SummerDesignDay
8,9411436.031346277
1095,521177.76625947616
2,1, 8,21, 0, 9,10.00,20.00,SummerDesignDay
8,9485833.604368318
1095,521177.76625947616
2,1, 8,21, 0, 9,20.00,30.00,SummerDesignDay
8,9562429.48286554
1095,521177.76625947616
2,1, 8,21, 0, 9,30.00,40.00,SummerDesignDay
8,9640286.180319498
1095,521177.76625947616
2,1, 8,21, 0, 9,40.00,50.00,SummerDesignDay
8,9719081.386785046
1095,521177.76625947616
2,1, 8,21, 0, 9,50.00,60.00,SummerDesignDay
8,9798376.272094612
1095,521177.76625947616
2,1, 8,21, 0,10, 0.00,10.00,SummerDesignDay
8,9872901.323544138
1095,521177.76625947616
2,1, 8,21, 0,10,10.00,20.00,SummerDesignDay
8,9947684.253768318
1095,521177.76625947616
2,1, 8,21, 0,10,20.00,30.00,SummerDesignDay
8,10021239.67898524
1095,521177.76625947616
2,1, 8,21, 0,10,30.00,40.00,SummerDesignDay
8,10093316.400000366
1095,521177.76625947616
2,1, 8,21, 0,10,40.00,50.00,SummerDesignDay
8,10163718.145765802
1095,521177.76625947616
2,1, 8,21, 0,10,50.00,60.00,SummerDesignDay
8,10232200.3542875
1095,521177.76625947616
2,1, 8,21, 0,11, 0.00,10.00,SummerDesignDay
8,10294830.241305272
1095,521177.76625947616
2,1, 8,21, 0,11,10.00,20.00,SummerDesignDay
8,10355064.875213368
1095,521177.76625947616
2,1, 8,21, 0,11,20.00,30.00,SummerDesignDay
8,10412777.776799305
1095,521177.76625947616
2,1, 8,21, 0,11,30.00,40.00,SummerDesignDay
8,10467911.004052852
1095,521177.76625947616
2,1, 8,21, 0,11,40.00,50.00,SummerDesignDay
8,10520462.272733838
1095,521177.76625947616
2,1, 8,21, 0,11,50.00,60.00,SummerDesignDay
8,10570486.56414594
1095,521177.76625947616
2,1, 8,21, 0,12, 0.00,10.00,SummerDesignDay
8,10608348.725079412
1095,481441.75518736036
2,1, 8,21, 0,12,10.00,20.00,SummerDesignDay
8,10643659.10192702
1095,0.0
2,1, 8,21, 0,12,20.00,30.00,SummerDesignDay
8,10676685.352093187
1095,0.0
2,1, 8,21, 0,12,30.00,40.00,SummerDesignDay
8,10707777.573679513
1095,0.0
2,1, 8,21, 0,12,40.00,50.00,SummerDesignDay
8,10737617.763966348
1095,291792.6276195946
2,1, 8,21, 0,12,50.00,60.00,SummerDesignDay
8,10766888.489677517
1095,521177.76625947616
2,1, 8,21, 0,13, 0.00,10.00,SummerDesignDay
8,10792356.114430817
1095,521177.76625947616
2,1, 8,21, 0,13,10.00,20.00,SummerDesignDay
8,10819392.079448119
1095,521177.76625947616
2,1, 8,21, 0,13,20.00,30.00,SummerDesignDay
8,10847827.821937334
1095,521177.76625947616
2,1, 8,21, 0,13,30.00,40.00,SummerDesignDay
8,10877094.13729576
1095,521177.76625947616
2,1, 8,21, 0,13,40.00,50.00,SummerDesignDay
8,10906519.859887084
1095,521177.76625947616
2,1, 8,21, 0,13,50.00,60.00,SummerDesignDay
8,10935686.584044954
1095,521177.76625947616
2,1, 8,21, 0,14, 0.00,10.00,SummerDesignDay
8,10957899.465182003
1095,521177.76625947616
2,1, 8,21, 0,14,10.00,20.00,SummerDesignDay
8,10978656.737737824
1095,521177.76625947616
2,1, 8,21, 0,14,20.00,30.00,SummerDesignDay
8,10997545.6994923
1095,521177.76625947616
2,1, 8,21, 0,14,30.00,40.00,SummerDesignDay
8,11014259.913209822
1095,521177.76625947616
2,1, 8,21, 0,14,40.00,50.00,SummerDesignDay
8,11028579.722485852
1095,521177.76625947616
2,1, 8,21, 0,14,50.00,60.00,SummerDesignDay
8,11040334.809550314
1095,521177.76625947616
2,1, 8,21, 0,15, 0.00,10.00,SummerDesignDay
8,11038987.810721493
1095,521177.76625947616
2,1, 8,21, 0,15,10.00,20.00,SummerDesignDay
8,11034554.748507975
1095,521177.76625947616
2,1, 8,21, 0,15,20.00,30.00,SummerDesignDay
8,11026959.84625214
1095,521177.76625947616
2,1, 8,21, 0,15,30.00,40.00,SummerDesignDay
8,11016193.818295129
1095,521177.76625947616
2,1, 8,21, 0,15,40.00,50.00,SummerDesignDay
8,11002308.001484545
1095,521177.76625947616
2,1, 8,21, 0,15,50.00,60.00,SummerDesignDay
8,10985363.343278986
1095,521177.76625947616
2,1, 8,21, 0,16, 0.00,10.00,SummerDesignDay
8,10953096.870646295
1095,521177.76625947616
2,1, 8,21, 0,16,10.00,20.00,SummerDesignDay
8,10918497.412543497
1095,521177.76625947616
2,1, 8,21, 0,16,20.00,30.00,SummerDesignDay
8,10880055.938370625
1095,521177.76625947616
2,1, 8,21, 0,16,30.00,40.00,SummerDesignDay
8,10838613.24780584
1095,256595.90745232657
2,1, 8,21, 0,16,40.00,50.00,SummerDesignDay
8,10794386.468092546
1095,0.0
2,1, 8,21, 0,16,50.00,60.00,SummerDesignDay
8,10747595.744901974
1095,0.0
2,1, 8,21, 0,17, 0.00,10.00,SummerDesignDay
8,10694449.07040272
1095,0.0
2,1, 8,21, 0,17,10.00,20.00,SummerDesignDay
8,10639147.647160348
1095,463116.46232252006
2,1, 8,21, 0,17,20.00,30.00,SummerDesignDay
8,10581847.246748798
1095,521177.76625947616
2,1, 8,21, 0,17,30.00,40.00,SummerDesignDay
8,10522784.26446396
1095,521177.76625947616
2,1, 8,21, 0,17,40.00,50.00,SummerDesignDay
8,10460995.343497703
1095,521177.76625947616
2,1, 8,21, 0,17,50.00,60.00,SummerDesignDay
8,10398734.482445695
1095,521177.76625947616
2,1, 8,21, 0,18, 0.00,10.00,SummerDesignDay
8,10332144.371958005
1095,521177.76625947616
2,1, 8,21, 0,18,10.00,20.00,SummerDesignDay
8,10265252.89005038
1095,521177.76625947616
2,1, 8,21, 0,18,20.00,30.00,SummerDesignDay
8,10197224.496810608
1095,521177.76625947616
2,1, 8,21, 0,18,30.00,40.00,SummerDesignDay
8,10127908.779714374
1095,521177.76625947616
2,1, 8,21, 0,18,40.00,50.00,SummerDesignDay
8,10056501.385870044
1095,521177.76625947616
2,1, 8,21, 0,18,50.00,60.00,SummerDesignDay
8,9982634.11977344
1095,521177.76625947616
2,1, 8,21, 0,19, 0.00,10.00,SummerDesignDay
8,9896802.931251666
1095,521177.76625947616
2,1, 8,21, 0,19,10.00,20.00,SummerDesignDay
8,9806976.839342798
1095,521177.76625947616
2,1, 8,21, 0,19,20.00,30.00,SummerDesignDay
8,9712544.544715837
1095,521177.76625947616
2,1, 8,21, 0,19,30.00,40.00,SummerDesignDay
8,9610813.90606655
1095,521177.76625947616
2,1, 8,21, 0,19,40.00,50.00,SummerDesignDay
8,9511452.118663356
1095,521177.76625947616
2,1, 8,21, 0,19,50.00,60.00,SummerDesignDay
8,9424448.761425617
1095,521177.76625947616
2,1, 8,21, 0,20, 0.00,10.00,SummerDesignDay
8,9362550.13373516
1095,521177.76625947616
2,1, 8,21, 0,20,10.00,20.00,SummerDesignDay
8,9306945.019691037
1095,154015.52889956616
2,1, 8,21, 0,20,20.00,30.00,SummerDesignDay
8,9257680.662794045
1095,0.0
2,1, 8,21, 0,20,30.00,40.00,SummerDesignDay
8,9213331.260212293
1095,0.0
2,1, 8,21, 0,20,40.00,50.00,SummerDesignDay
8,9172755.441276849
1095,0.0
2,1, 8,21, 0,20,50.00,60.00,SummerDesignDay
8,9135668.584646078
1095,453551.52791206448
2,1, 8,21, 0,21, 0.00,10.00,SummerDesignDay
8,9104620.747507435
1095,521177.76625947616
2,1, 8,21, 0,21,10.00,20.00,SummerDesignDay
8,9075993.90164109
1095,521177.76625947616
2,1, 8,21, 0,21,20.00,30.00,SummerDesignDay
8,9049527.839620017
1095,521177.76625947616
2,1, 8,21, 0,21,30.00,40.00,SummerDesignDay
8,9024139.849722917
1095,521177.76625947616
2,1, 8,21, 0,21,40.00,50.00,SummerDesignDay
8,9000346.924033532
1095,521177.76625947616
2,1, 8,21, 0,21,50.00,60.00,SummerDesignDay
8,8977513.267929072
1095,521177.76625947616
2,1, 8,21, 0,22, 0.00,10.00,SummerDesignDay
8,8955568.022814358
1095,521177.76625947616
2,1, 8,21, 0,22,10.00,20.00,SummerDesignDay
8,8934350.655503508
1095,521177.76625947616
2,1, 8,21, 0,22,20.00,30.00,SummerDesignDay
8,8913735.60389626
1095,521177.76625947616
2,1, 8,21, 0,22,30.00,40.00,SummerDesignDay
8,8893762.232440414
1095,521177.76625947616
2,1, 8,21, 0,22,40.00,50.00,SummerDesignDay
8,8874189.87280102
1095,521177.76625947616
2,1, 8,21, 0,22,50.00,60.00,SummerDesignDay
8,8854924.358407213
1095,521177.76625947616
2,1, 8,21, 0,23, 0.00,10.00,SummerDesignDay
8,7699616.147513912
1095,361920.9577334449
2,1, 8,21, 0,23,10.00,20.00,SummerDesignDay
8,7699616.147513912
1095,0.0
2,1, 8,21, 0,23,20.00,30.00,SummerDesignDay
8,7699616.147513912
1095,0.0
2,1, 8,21, 0,23,30.00,40.00,SummerDesignDay
8,7699616.147513912
1095,0.0
2,1, 8,21, 0,23,40.00,50.00,SummerDesignDay
8,7699616.147513912
1095,0.0
2,1, 8,21, 0,23,50.00,60.00,SummerDesignDay
8,7721775.208874443
1095,0.0
2,1, 8,21, 0,24, 0.00,10.00,SummerDesignDay
8,7728570.647598207
1095,0.0
2,1, 8,21, 0,24,10.00,20.00,SummerDesignDay
8,7733409.915867437
1095,0.0
2,1, 8,21, 0,24,20.00,30.00,SummerDesignDay
8,7738144.124361441
1095,0.0
2,1, 8,21, 0,24,30.00,40.00,SummerDesignDay
8,7741121.725780422
1095,85790.24751970204
2,1, 8,21, 0,24,40.00,50.00,SummerDesignDay
8,7743232.018321926
1095,521177.76625947616
2,1, 8,21, 0,24,50.00,60.00,SummerDesignDay
8,7744727.538735351
1095,521177.76625947616
1,CLIMATE ZONE 3 ANN CLG .4% CONDNS WB=>MDB HVAC Sizing Pass 1,  37.70,-122.20,  -8.00,   2.00
2,1, 8,21, 0, 1, 0.00,10.00,SummerDesignDay
8,7699616.147513912
1095,0.0
2,1, 8,21, 0, 1,10.00,20.00,SummerDesignDay
8,7699616.147513912
1095,0.0
2,1, 8,21, 0, 1,20.00,30.00,SummerDesignDay
8,7699616.147513912
1095,0.0
2,1, 8,21, 0, 1,30.00,40.00,SummerDesignDay
8,7699616.147513912
1095,0.0
2,1, 8,21, 0, 1,40.00,50.00,SummerDesignDay
8,7699616.147513912
1095,0.0
2,1, 8,21, 0, 1,50.00,60.00,SummerDesignDay
8,7699616.147513912
1095,0.0
2,1, 8,21, 0, 2, 0.00,10.00,SummerDesignDay
8,7699616.147513912
1095,0.0
2,1, 8,21, 0, 2,10.00,20.00,SummerDesignDay
8,7699616.147513912
1095,0.0
2,1, 8,21, 0, 2,20.00,30.00,SummerDesignDay
8,7699616.147513912
1095,0.0
2,1, 8,21, 0, 2,30.00,40.00,SummerDesignDay
8,7699616.147513912
1095,447749.53770507717
2,1, 8,21, 0, 2,40.00,50.00,SummerDesignDay
8,7699616.147513912
1095,521177.76625947616
2,1, 8,21, 0, 2,50.00,60.00,SummerDesignDay
8,7699616.147513912
1095,521177.76625947616
2,1, 8,21, 0, 3, 0.00,10.00,SummerDesignDay
8,7699616.147513912
1095,521177.76625947616
2,1, 8,21, 0, 3,10.00,20.00,SummerDesignDay
8,7699616.147513912
1095,394249.7654536767
2,1, 8,21, 0, 3,20.00,30.00,SummerDesignDay
8,7699616.147513912
1095,0.0
2,1, 8,21, 0, 3,30.00,40.00,SummerDesignDay
8,7699616.147513912
1095,0.0
2,1, 8,21, 0, 3,40.00,50.00,SummerDesignDay
8,7699616.147513912
1095,0.0
2,1, 8,21, 0, 3,50.00,60.00,SummerDesignDay
8,7699616.147513912
1095,0.0
2,1, 8,21, 0, 4, 0.00,10.00,SummerDesignDay
8,7699616.147513912
1095,0.0
2,1, 8,21, 0, 4,10.00,20.00,SummerDesignDay
8,7699616.147513912
1095,0.0
2,1, 8,21, 0, 4,20.00,30.00,SummerDesignDay
8,7699616.147513912
1095,0.0
2,1, 8,21, 0, 4,30.00,40.00,SummerDesignDay
8,7699616.147513912
1095,0.0
2,1, 8,21, 0, 4,40.00,50.00,SummerDesignDay
8,7699616.147513912
1095,53478.98059012607
2,1, 8,21, 0, 4,50.00,60.00,SummerDesignDay
8,7699616.147513912
1095,521177.76625947616
2,1, 8,21, 0, 5, 0.00,10.00,SummerDesignDay
8,7699616.147513912
1095,521177.76625947616
2,1, 8,21, 0, 5,10.00,20.00,SummerDesignDay
8,7699616.147513912
1095,521177.76625947616
2,1, 8,21, 0, 5,20.00,30.00,SummerDesignDay
8,7699616.147513912
1095,521177.76625947616
2,1, 8,21, 0, 5,30.00,40.00,SummerDesignDay
8,7699616.147513912
1095,267342.2115257992
2,1, 8,21, 0, 5,40.00,50.00,SummerDesignDay
8,7699616.147513912
1095,0.0
2,1, 8,21, 0, 5,50.00,60.00,SummerDesignDay
8,7699616.147513912
1095,0.0
2,1, 8,21, 0, 6, 0.00,10.00,SummerDesignDay
8,7699616.147513912
1095,0.0
2,1, 8,21, 0, 6,10.00,20.00,SummerDesignDay
8,7699616.147513912
1095,0.0
2,1, 8,21, 0, 6,20.00,30.00,SummerDesignDay
8,7699616.147513912
1095,0.0
2,1, 8,21, 0, 6,30.00,40.00,SummerDesignDay
8,7699616.147513912
1095,0.0
2,1, 8,21, 0, 6,40.00,50.00,SummerDesignDay
8,7699616.147513912
1095,0.0
2,1, 8,21, 0, 6,50.00,60.00,SummerDesignDay
8,7699616.147513912
1095,0.0
2,1, 8,21, 0, 7, 0.00,10.00,SummerDesignDay
8,8946864.90751963
1095,180368.47262911613
2,1, 8,21, 0, 7,10.00,20.00,SummerDesignDay
8,8779926.079146153
1095,521177.7662594761
2,1, 8,21, 0, 7,20.00,30.00,SummerDesignDay
8,8732363.034299026
1095,521177.76625947616
2,1, 8,21, 0, 7,30.00,40.00,SummerDesignDay
8,8672448.232703552
1095,521177.76625947616
2,1, 8,21, 0, 7,40.00,50.00,SummerDesignDay
8,8716649.968226262
1095,521177.76625947616
2,1, 8,21, 0, 7,50.00,60.00,SummerDesignDay
8,8746547.097672463
1095,140418.61207157689
2,1, 8,21, 0, 8, 0.00,10.00,SummerDesignDay
8,8807567.877229084
1095,0.0
2,1, 8,21, 0, 8,10.00,20.00,SummerDesignDay
8,8872264.889246205
1095,0.0
2,1, 8,21, 0, 8,20.00,30.00,SummerDesignDay
8,8940824.403543653
1095,0.0
2,1, 8,21, 0, 8,30.00,40.00,SummerDesignDay
8,9012341.831304258
1095,396343.3137390928
2,1, 8,21, 0, 8,40.00,50.00,SummerDesignDay
8,9086604.949243572
1095,521177.76625947616
2,1, 8,21, 0, 8,50.00,60.00,SummerDesignDay
8,9162876.666544747
1095,521177.76625947616
2,1, 8,21, 0, 9, 0.00,10.00,SummerDesignDay
8,9244031.736055447
1095,521177.76625947616
2,1, 8,21, 0, 9,10.00,20.00,SummerDesignDay
8,9325663.529458235
1095,521177.76625947616
2,1, 8,21, 0, 9,20.00,30.00,SummerDesignDay
8,9407370.212276534
1095,521177.76625947616
2,1, 8,21, 0, 9,30.00,40.00,SummerDesignDay
8,9489261.246373555
1095,521177.76625947616
2,1, 8,21, 0, 9,40.00,50.00,SummerDesignDay
8,9571022.165291254
1095,521177.76625947616
2,1, 8,21, 0, 9,50.00,60.00,SummerDesignDay
8,9652864.074408582
1095,521177.76625947616
2,1, 8,21, 0,10, 0.00,10.00,SummerDesignDay
8,9728845.653418366
1095,521177.76625947616
2,1, 8,21, 0,10,10.00,20.00,SummerDesignDay
8,9805467.688179577
1095,521177.76625947616
2,1, 8,21, 0,10,20.00,30.00,SummerDesignDay
8,9879895.756676821
1095,521177.76625947616
2,1, 8,21, 0,10,30.00,40.00,SummerDesignDay
8,9952802.415876659
1095,521177.76625947616
2,1, 8,21, 0,10,40.00,50.00,SummerDesignDay
8,10023768.218440718
1095,521177.76625947616
2,1, 8,21, 0,10,50.00,60.00,SummerDesignDay
8,10092107.397080232
1095,521177.76625947616
2,1, 8,21, 0,11, 0.00,10.00,SummerDesignDay
8,10154507.400587202
1095,521177.76625947616
2,1, 8,21, 0,11,10.00,20.00,SummerDesignDay
8,10214496.212269512
1095,521177.76625947616
2,1, 8,21, 0,11,20.00,30.00,SummerDesignDay
8,10271592.003782604
1095,521177.76625947616
2,1, 8,21, 0,11,30.00,40.00,SummerDesignDay
8,10326057.676217502
1095,521177.76625947616
2,1, 8,21, 0,11,40.00,50.00,SummerDesignDay
8,10377804.133385264
1095,521177.76625947616
2,1, 8,21, 0,11,50.00,60.00,SummerDesignDay
8,10426778.299822845
1095,521177.76625947616
2,1, 8,21, 0,12, 0.00,10.00,SummerDesignDay
8,10463528.426535443
1095,481434.0091292367
2,1, 8,21, 0,12,10.00,20.00,SummerDesignDay
8,10497686.578757879
1095,0.0
2,1, 8,21, 0,12,20.00,30.00,SummerDesignDay
8,10529498.000237434
1095,0.0
2,1, 8,21, 0,12,30.00,40.00,SummerDesignDay
8,10559853.089717025
1095,0.0
2,1, 8,21, 0,12,40.00,50.00,SummerDesignDay
8,10588788.163019017
1095,291800.35448235206
2,1, 8,21, 0,12,50.00,60.00,SummerDesignDay
8,10617141.22950231
1095,521177.76625947616
2,1, 8,21, 0,13, 0.00,10.00,SummerDesignDay
8,10641959.998378164
1095,521177.76625947616
2,1, 8,21, 0,13,10.00,20.00,SummerDesignDay
8,10668399.799737029
1095,521177.76625947616
2,1, 8,21, 0,13,20.00,30.00,SummerDesignDay
8,10696396.477733519
1095,521177.76625947616
2,1, 8,21, 0,13,30.00,40.00,SummerDesignDay
8,10725369.78502987
1095,521177.76625947616
2,1, 8,21, 0,13,40.00,50.00,SummerDesignDay
8,10754421.204036029
1095,521177.76625947616
2,1, 8,21, 0,13,50.00,60.00,SummerDesignDay
8,10783173.733255148
1095,521177.76625947616
2,1, 8,21, 0,14, 0.00,10.00,SummerDesignDay
8,10804841.192707729
1095,521177.76625947616
2,1, 8,21, 0,14,10.00,20.00,SummerDesignDay
8,10825036.315760356
1095,521177.76625947616
2,1, 8,21, 0,14,20.00,30.00,SummerDesignDay
8,10843345.95023264
1095,521177.76625947616
2,1, 8,21, 0,14,30.00,40.00,SummerDesignDay
8,10859454.338279605
1095,521177.76625947616
2,1, 8,21, 0,14,40.00,50.00,SummerDesignDay
8,10873134.746011088
1095,521177.76625947616
2,1, 8,21, 0,14,50.00,60.00,SummerDesignDay
8,10884217.519796014
1095,521177.76625947616
2,1, 8,21, 0,15, 0.00,10.00,SummerDesignDay
8,10882004.389932979
1095,521177.76625947616
2,1, 8,21, 0,15,10.00,20.00,SummerDesignDay
8,10876792.369536194
1095,521177.76625947616
2,1, 8,21, 0,15,20.00,30.00,SummerDesignDay
8,10868474.073007904
1095,521177.76625947616
2,1, 8,21, 0,15,30.00,40.00,SummerDesignDay
8,10857033.849128956
1095,521177.76625947616
2,1, 8,21, 0,15,40.00,50.00,SummerDesignDay
8,10842511.40642542
1095,521177.76625947616
2,1, 8,21, 0,15,50.00,60.00,SummerDesignDay
8,10824956.330154039
1095,521177.76625947616
2,1, 8,21, 0,16, 0.00,10.00,SummerDesignDay
8,10791926.359014379
1095,521177.76625947616
2,1, 8,21, 0,16,10.00,20.00,SummerDesignDay
8,10756698.903482743
1095,521177.76625947616
2,1, 8,21, 0,16,20.00,30.00,SummerDesignDay
8,10717663.278563437
1095,521177.76625947616
2,1, 8,21, 0,16,30.00,40.00,SummerDesignDay
8,10675695.437624345
1095,256589.76747214344
2,1, 8,21, 0,16,40.00,50.00,SummerDesignDay
8,10630991.509174886
1095,0.0
2,1, 8,21, 0,16,50.00,60.00,SummerDesignDay
8,10583755.188821698
1095,0.0
2,1, 8,21, 0,17, 0.00,10.00,SummerDesignDay
8,10530115.220150765
1095,0.0
2,1, 8,21, 0,17,10.00,20.00,SummerDesignDay
8,10474354.541070816
1095,463122.45514468799
2,1, 8,21, 0,17,20.00,30.00,SummerDesignDay
8,10416622.044875382
1095,521177.76625947616
2,1, 8,21, 0,17,30.00,40.00,SummerDesignDay
8,10357295.356173045
1095,521177.76625947616
2,1, 8,21, 0,17,40.00,50.00,SummerDesignDay
8,10295353.180905382
1095,521177.76625947616
2,1, 8,21, 0,17,50.00,60.00,SummerDesignDay
8,10232473.617602913
1095,521177.76625947616
2,1, 8,21, 0,18, 0.00,10.00,SummerDesignDay
8,10165592.6785353
1095,521177.76625947616
2,1, 8,21, 0,18,10.00,20.00,SummerDesignDay
8,10098588.155692893
1095,521177.76625947616
2,1, 8,21, 0,18,20.00,30.00,SummerDesignDay
8,10029828.641897545
1095,521177.76625947616
2,1, 8,21, 0,18,30.00,40.00,SummerDesignDay
8,9960258.83963272
1095,521177.76625947616
2,1, 8,21, 0,18,40.00,50.00,SummerDesignDay
8,9888528.567390057
1095,521177.76625947616
2,1, 8,21, 0,18,50.00,60.00,SummerDesignDay
8,9814026.329777
1095,521177.76625947616
2,1, 8,21, 0,19, 0.00,10.00,SummerDesignDay
8,9727822.32898063
1095,521177.76625947616
2,1, 8,21, 0,19,10.00,20.00,SummerDesignDay
8,9636471.557233785
1095,521177.76625947616
2,1, 8,21, 0,19,20.00,30.00,SummerDesignDay
8,9538703.050571654
1095,521177.76625947616
2,1, 8,21, 0,19,30.00,40.00,SummerDesignDay
8,9434295.757553719
1095,521177.76625947616
2,1, 8,21, 0,19,40.00,50.00,SummerDesignDay
8,9333021.784885932
1095,521177.76625947616
2,1, 8,21, 0,19,50.00,60.00,SummerDesignDay
8,9245064.88891694
1095,521177.76625947616
2,1, 8,21, 0,20, 0.00,10.00,SummerDesignDay
8,9179113.618171793
1095,521177.76625947616
2,1, 8,21, 0,20,10.00,20.00,SummerDesignDay
8,9121236.255074805
1095,154011.38567823577
2,1, 8,21, 0,20,20.00,30.00,SummerDesignDay
8,9069624.99119045
1095,0.0
2,1, 8,21, 0,20,30.00,40.00,SummerDesignDay
8,9023229.898317816
1095,0.0
2,1, 8,21, 0,20,40.00,50.00,SummerDesignDay
8,8981129.943740219
1095,0.0
2,1, 8,21, 0,20,50.00,60.00,SummerDesignDay
8,8942544.98293152
1095,453555.67111309515
2,1, 8,21, 0,21, 0.00,10.00,SummerDesignDay
8,8910342.242147429
1095,521177.76625947616
2,1, 8,21, 0,21,10.00,20.00,SummerDesignDay
8,8880633.227561893
1095,521177.76625947616
2,1, 8,21, 0,21,20.00,30.00,SummerDesignDay
8,8852845.645512598
1095,521177.76625947616
2,1, 8,21, 0,21,30.00,40.00,SummerDesignDay
8,8826604.51752656
1095,521177.76625947616
2,1, 8,21, 0,21,40.00,50.00,SummerDesignDay
8,8801643.9740698
1095,521177.76625947616
2,1, 8,21, 0,21,50.00,60.00,SummerDesignDay
8,8777734.57687915
1095,521177.76625947616
2,1, 8,21, 0,22, 0.00,10.00,SummerDesignDay
8,8754687.642382916
1095,521177.76625947616
2,1, 8,21, 0,22,10.00,20.00,SummerDesignDay
8,8732348.408878163
1095,521177.76625947616
2,1, 8,21, 0,22,20.00,30.00,SummerDesignDay
8,8710590.683119715
1095,521177.76625947616
2,1, 8,21, 0,22,30.00,40.00,SummerDesignDay
8,8689312.057724785
1095,521177.76625947616
2,1, 8,21, 0,22,40.00,50.00,SummerDesignDay
8,8668581.63609477
1095,521177.76625947616
2,1, 8,21, 0,22,50.00,60.00,SummerDesignDay
8,8648157.216511237
1095,521177.76625947616
2,1, 8,21, 0,23, 0.00,10.00,SummerDesignDay
8,7699616.147513912
1095,361922.79773692417
2,1, 8,21, 0,23,10.00,20.00,SummerDesignDay
8,7699616.147513912
1095,0.0
2,1, 8,21, 0,23,20.00,30.00,SummerDesignDay
8,7699616.147513912
1095,0.0
2,1, 8,21, 0,23,30.00,40.00,SummerDesignDay
8,7699616.147513912
1095,0.0
2,1, 8,21, 0,23,40.00,50.00,SummerDesignDay
8,7699616.147513912
1095,0.0
2,1, 8,21, 0,23,50.00,60.00,SummerDesignDay
8,7699616.147513912
1095,0.0
2,1, 8,21, 0,24, 0.00,10.00,SummerDesignDay
8,7699616.147513912
1095,0.0
2,1, 8,21, 0,24,10.00,20.00,SummerDesignDay
8,7699616.147513912
1095,0.0
2,1, 8,21, 0,24,20.00,30.00,SummerDesignDay
8,7699616.147513912
1095,0.0
2,1, 8,21, 0,24,30.00,40.00,SummerDesignDay
8,7699616.147513912
1095,85763.96725491315
2,1, 8,21, 0,24,40.00,50.00,SummerDesignDay
8,7699616.147513912
1095,521177.76625947616
2,1, 8,21, 0,24,50.00,60.00,SummerDesignDay
8,7699616.147513912
1095,521177.76625947616
1,CLIMATE ZONE 3 ANN HTG 99.6% CONDNS DB HVAC Sizing Pass 1,  37.70,-122.20,  -8.00,   2.00
2,1, 1,21, 0, 1, 0.00,10.00,WinterDesignDay
8,891548.1475139319
1095,12492805.462318996
2,1, 1,21, 0, 1,10.00,20.00,WinterDesignDay
8,891548.1475139319
1095,12492849.332827418
2,1, 1,21, 0, 1,20.00,30.00,WinterDesignDay
8,891548.1475139319
1095,12492892.876739081
2,1, 1,21, 0, 1,30.00,40.00,WinterDesignDay
8,891548.1475139319
1095,12492936.096483192
2,1, 1,21, 0, 1,40.00,50.00,WinterDesignDay
8,891548.1475139319
1095,12492978.994470759
2,1, 1,21, 0, 1,50.00,60.00,WinterDesignDay
8,891548.1475139319
1095,12493021.573095072
2,1, 1,21, 0, 2, 0.00,10.00,WinterDesignDay
8,891548.1475139319
1095,12493063.834731542
2,1, 1,21, 0, 2,10.00,20.00,WinterDesignDay
8,891548.1475139319
1095,12493105.781737976
2,1, 1,21, 0, 2,20.00,30.00,WinterDesignDay
8,891548.1475139319
1095,12493147.416454653
2,1, 1,21, 0, 2,30.00,40.00,WinterDesignDay
8,891548.1475139319
1095,12940938.278909613
2,1, 1,21, 0, 2,40.00,50.00,WinterDesignDay
8,891548.1475139319
1095,13014407.524552793
2,1, 1,21, 0, 2,50.00,60.00,WinterDesignDay
8,891548.1475139319
1095,13014448.236269048
2,1, 1,21, 0, 3, 0.00,10.00,WinterDesignDay
8,891548.1475139319
1095,13014488.64488438
2,1, 1,21, 0, 3,10.00,20.00,WinterDesignDay
8,891548.1475139319
1095,12887600.751847666
2,1, 1,21, 0, 3,20.00,30.00,WinterDesignDay
8,891548.1475139319
1095,12493390.795554825
2,1, 1,21, 0, 3,30.00,40.00,WinterDesignDay
8,891548.1475139319
1095,12493430.308328683
2,1, 1,21, 0, 3,40.00,50.00,WinterDesignDay
8,891548.1475139319
1095,12493469.526920509
2,1, 1,21, 0, 3,50.00,60.00,WinterDesignDay
8,891548.1475139319
1095,12493508.453518713
2,1, 1,21, 0, 4, 0.00,10.00,WinterDesignDay
8,891548.1475139319
1095,12493547.090295589
2,1, 1,21, 0, 4,10.00,20.00,WinterDesignDay
8,891548.1475139319
1095,12493585.43940719
2,1, 1,21, 0, 4,20.00,30.00,WinterDesignDay
8,891548.1475139319
1095,12493623.502993674
2,1, 1,21, 0, 4,30.00,40.00,WinterDesignDay
8,891548.1475139319
1095,12493661.283179217
2,1, 1,21, 0, 4,40.00,50.00,WinterDesignDay
8,891548.1475139319
1095,12547177.762662365
2,1, 1,21, 0, 4,50.00,60.00,WinterDesignDay
8,891548.1475139317
1095,13014913.768024981
2,1, 1,21, 0, 5, 0.00,10.00,WinterDesignDay
8,891548.1475139319
1095,13014950.710595748
2,1, 1,21, 0, 5,10.00,20.00,WinterDesignDay
8,891548.1475139319
1095,13014987.37810571
2,1, 1,21, 0, 5,20.00,30.00,WinterDesignDay
8,891548.1475139319
1095,13015023.772601426
2,1, 1,21, 0, 5,30.00,40.00,WinterDesignDay
8,891548.1475139319
1095,12761224.341380453
2,1, 1,21, 0, 5,40.00,50.00,WinterDesignDay
8,891548.1475139319
1095,12493917.984400539
2,1, 1,21, 0, 5,50.00,60.00,WinterDesignDay
8,891548.1475139319
1095,12493953.571980887
2,1, 1,21, 0, 6, 0.00,10.00,WinterDesignDay
8,891548.1475139319
1095,12493988.894582004
2,1, 1,21, 0, 6,10.00,20.00,WinterDesignDay
8,891548.1475139319
1095,12494023.954175527
2,1, 1,21, 0, 6,20.00,30.00,WinterDesignDay
8,891548.1475139319
1095,12494058.752718442
2,1, 1,21, 0, 6,30.00,40.00,WinterDesignDay
8,891548.1475139319
1095,12494093.292153145
2,1, 1,21, 0, 6,40.00,50.00,WinterDesignDay
8,891548.1475139319
1095,12494127.574407654
2,1, 1,21, 0, 6,50.00,60.00,WinterDesignDay
8,891548.1475139319
1095,12494161.601395645
2,1, 1,21, 0, 7, 0.00,10.00,WinterDesignDay
8,891548.1475139319
1095,12674571.20620479
2,1, 1,21, 0, 7,10.00,20.00,WinterDesignDay
8,891548.1475139319
1095,13015406.663415248
2,1, 1,21, 0, 7,20.00,30.00,WinterDesignDay
8,891548.1475139317
1095,13015439.935944053
2,1, 1,21, 0, 7,30.00,40.00,WinterDesignDay
8,891548.1475139319
1095,13015472.96071992
2,1, 1,21, 0, 7,40.00,50.00,WinterDesignDay
8,891548.1475139319
1095,13015505.739586445
2,1, 1,21, 0, 7,50.00,60.00,WinterDesignDay
8,891548.1475139319
1095,12634795.836915523
2,1, 1,21, 0, 8, 0.00,10.00,WinterDesignDay
8,891725.5863350512
1095,12494392.800638145
2,1, 1,21, 0, 8,10.00,20.00,WinterDesignDay
8,891725.5863350512
1095,12494424.852701968
2,1, 1,21, 0, 8,20.00,30.00,WinterDesignDay
8,891725.5863350512
1095,12494456.666094985
2,1, 1,21, 0, 8,30.00,40.00,WinterDesignDay
8,891725.5863350512
1095,12919895.099555349
2,1, 1,21, 0, 8,40.00,50.00,WinterDesignDay
8,891725.5863350512
1095,13015697.350219487
2,1, 1,21, 0, 8,50.00,60.00,WinterDesignDay
8,891725.5863350512
1095,13015728.458204285
2,1, 1,21, 0, 9, 0.00,10.00,WinterDesignDay
8,891725.5863350512
1095,13015759.334544098
2,1, 1,21, 0, 9,10.00,20.00,WinterDesignDay
8,891725.5863350512
1095,13015789.980962845
2,1, 1,21, 0, 9,20.00,30.00,WinterDesignDay
8,891725.5863350512
1095,13015820.399171683
2,1, 1,21, 0, 9,30.00,40.00,WinterDesignDay
8,891725.5863350512
1095,13015850.590869027
2,1, 1,21, 0, 9,40.00,50.00,WinterDesignDay
8,891725.5863350512
1095,13015880.557740709
2,1, 1,21, 0, 9,50.00,60.00,WinterDesignDay
8,891725.5863350512
1095,13015910.301459959
2,1, 1,21, 0,10, 0.00,10.00,WinterDesignDay
8,891725.5863350512
1095,13015939.823687643
2,1, 1,21, 0,10,10.00,20.00,WinterDesignDay
8,891725.5863350512
1095,13015969.126072187