Program Version,EnergyPlus, Version 9.4.0-998c4b761e, YMD=2021.06.25 08:51
1,5,Environment Title[],Latitude[deg],Longitude[deg],Time Zone[],Elevation[m]
2,8,Day of Simulation[],Month[],Day of Month[],DST Indicator[1=yes 0=no],Hour[],StartMinute[],EndMinute[],DayType
3,5,Cumulative Day of Simulation[],Month[],Day of Month[],DST Indicator[1=yes 0=no],DayType  ! When Daily Report Variables Requested
4,2,Cumulative Days of Simulation[],Month[]  ! When Monthly Report Variables Requested
5,1,Cumulative Days of Simulation[] ! When Run Period Report Variables Requested
6,1,Calendar Year of Simulation[] ! When Annual Report Variables Requested
8,1,Electricity:Facility [J] !TimeStep
1163,1,NaturalGas:Facility [J] !TimeStep
End of Data Dictionary
1,CLIMATE ZONE 3 ANN CLG .4% CONDNS DB=>MWB HVAC Sizing Pass 1,  37.70,-122.20,  -8.00,   2.00
2,1, 8,21, 0, 1, 0.00,10.00,SummerDesignDay
8,444568430.18022128
1163,0.0
2,1, 8,21, 0, 1,10.00,20.00,SummerDesignDay
8,444404581.47804859
1163,0.0
2,1, 8,21, 0, 1,20.00,30.00,SummerDesignDay
8,444239883.73324468
1163,0.0
2,1, 8,21, 0, 1,30.00,40.00,SummerDesignDay
8,444074337.11796239
1163,0.0
2,1, 8,21, 0, 1,40.00,50.00,SummerDesignDay
8,443907896.0642744
1163,0.0
2,1, 8,21, 0, 1,50.00,60.00,SummerDesignDay
8,443740566.8978247
1163,0.0
2,1, 8,21, 0, 2, 0.00,10.00,SummerDesignDay
8,443628514.6670077
1163,0.0
2,1, 8,21, 0, 2,10.00,20.00,SummerDesignDay
8,443516055.8643836
1163,0.0
2,1, 8,21, 0, 2,20.00,30.00,SummerDesignDay
8,443403185.7705534
1163,0.0
2,1, 8,21, 0, 2,30.00,40.00,SummerDesignDay
8,443289901.30617639
1163,0.0
2,1, 8,21, 0, 2,40.00,50.00,SummerDesignDay
8,443176194.40247777
1163,0.0
2,1, 8,21, 0, 2,50.00,60.00,SummerDesignDay
8,443062063.95100167
1163,0.0
2,1, 8,21, 0, 3, 0.00,10.00,SummerDesignDay
8,442976179.5032049
1163,0.0
2,1, 8,21, 0, 3,10.00,20.00,SummerDesignDay
8,442890051.8599754
1163,0.0
2,1, 8,21, 0, 3,20.00,30.00,SummerDesignDay
8,442803680.15860548
1163,0.0
2,1, 8,21, 0, 3,30.00,40.00,SummerDesignDay
8,442717059.66464868
1163,0.0
2,1, 8,21, 0, 3,40.00,50.00,SummerDesignDay
8,442630190.1757429
1163,0.0
2,1, 8,21, 0, 3,50.00,60.00,SummerDesignDay
8,442543083.72413197
1163,0.0
2,1, 8,21, 0, 4, 0.00,10.00,SummerDesignDay
8,442455709.4510732
1163,0.0
2,1, 8,21, 0, 4,10.00,20.00,SummerDesignDay
8,442368079.2485257
1163,0.0
2,1, 8,21, 0, 4,20.00,30.00,SummerDesignDay
8,442280191.1866219
1163,0.0
2,1, 8,21, 0, 4,30.00,40.00,SummerDesignDay
8,442192045.15897646
1163,0.0
2,1, 8,21, 0, 4,40.00,50.00,SummerDesignDay
8,442103635.9788793
1163,0.0
2,1, 8,21, 0, 4,50.00,60.00,SummerDesignDay
8,442014977.38615128
1163,0.0
2,1, 8,21, 0, 5, 0.00,10.00,SummerDesignDay
8,441955709.25776579
1163,0.0
2,1, 8,21, 0, 5,10.00,20.00,SummerDesignDay
8,441896336.93796399
1163,0.0
2,1, 8,21, 0, 5,20.00,30.00,SummerDesignDay
8,441836831.0072893
1163,0.0
2,1, 8,21, 0, 5,30.00,40.00,SummerDesignDay
8,441777204.70842829
1163,0.0
2,1, 8,21, 0, 5,40.00,50.00,SummerDesignDay
8,441717473.64302536
1163,0.0
2,1, 8,21, 0, 5,50.00,60.00,SummerDesignDay
8,441657605.57281848
1163,0.0
2,1, 8,21, 0, 6, 0.00,10.00,SummerDesignDay
8,441717468.1667918
1163,0.0
2,1, 8,21, 0, 6,10.00,20.00,SummerDesignDay
8,441777199.34958538
1163,0.0
2,1, 8,21, 0, 6,20.00,30.00,SummerDesignDay
8,441836825.77482047
1163,0.0
2,1, 8,21, 0, 6,30.00,40.00,SummerDesignDay
8,441896331.8144177
1163,0.0
2,1, 8,21, 0, 6,40.00,50.00,SummerDesignDay
8,441955706.784357
1163,0.0
2,1, 8,21, 0, 6,50.00,60.00,SummerDesignDay
8,442014973.7720655
1163,0.0
2,1, 8,21, 0, 7, 0.00,10.00,SummerDesignDay
8,442251171.1796805
1163,25722623.152981845
2,1, 8,21, 0, 7,10.00,20.00,SummerDesignDay
8,442456238.5512167
1163,8012675.890226341
2,1, 8,21, 0, 7,20.00,30.00,SummerDesignDay
8,442659896.35443738
1163,10591804.455011767
2,1, 8,21, 0, 7,30.00,40.00,SummerDesignDay
8,442862199.68296846
1163,10563604.623413466
2,1, 8,21, 0, 7,40.00,50.00,SummerDesignDay
8,443063159.3518468
1163,10550944.39077254
2,1, 8,21, 0, 7,50.00,60.00,SummerDesignDay
8,444058395.8886751
1163,512554.84341860396
2,1, 8,21, 0, 8, 0.00,10.00,SummerDesignDay
8,500092280.0286155
1163,16499879.676489838
2,1, 8,21, 0, 8,10.00,20.00,SummerDesignDay
8,454075475.4554801
1163,17181126.292172228
2,1, 8,21, 0, 8,20.00,30.00,SummerDesignDay
8,468828866.84751537
1163,13660454.074462139
2,1, 8,21, 0, 8,30.00,40.00,SummerDesignDay
8,476075223.0674676
1163,12065755.156666793
2,1, 8,21, 0, 8,40.00,50.00,SummerDesignDay
8,474958198.633347
1163,12069476.437403109
2,1, 8,21, 0, 8,50.00,60.00,SummerDesignDay
8,477096775.1146245
1163,12078253.216023397
2,1, 8,21, 0, 9, 0.00,10.00,SummerDesignDay
8,479645503.47691187
1163,17840382.43445602
2,1, 8,21, 0, 9,10.00,20.00,SummerDesignDay
8,482391599.2951245
1163,26832801.709975475
2,1, 8,21, 0, 9,20.00,30.00,SummerDesignDay
8,484829790.08216908
1163,15002394.910744893
2,1, 8,21, 0, 9,30.00,40.00,SummerDesignDay
8,487491161.5967634
1163,21877609.59404885
2,1, 8,21, 0, 9,40.00,50.00,SummerDesignDay
8,490095123.23173007
1163,23200754.305514888
2,1, 8,21, 0, 9,50.00,60.00,SummerDesignDay
8,493030324.6494591
1163,15010431.077067418
2,1, 8,21, 0,10, 0.00,10.00,SummerDesignDay
8,496599153.6377489
1163,26811533.90341152
2,1, 8,21, 0,10,10.00,20.00,SummerDesignDay
8,499103124.2293697
1163,20287687.368881037
2,1, 8,21, 0,10,20.00,30.00,SummerDesignDay
8,502139918.9615639
1163,18954103.372590554
2,1, 8,21, 0,10,30.00,40.00,SummerDesignDay
8,505004722.2908133
1163,28276152.897830696
2,1, 8,21, 0,10,40.00,50.00,SummerDesignDay
8,507772649.28311088
1163,15719912.969122306
2,1, 8,21, 0,10,50.00,60.00,SummerDesignDay
8,510473303.6137549
1163,24908662.36507505
2,1, 8,21, 0,11, 0.00,10.00,SummerDesignDay
8,512985165.8168222
1163,22643140.380830967
2,1, 8,21, 0,11,10.00,20.00,SummerDesignDay
8,515383219.11013647
1163,17737443.54410185
2,1, 8,21, 0,11,20.00,30.00,SummerDesignDay
8,517663010.74380746
1163,30059312.283376285
2,1, 8,21, 0,11,30.00,40.00,SummerDesignDay
8,519831339.3234153
1163,16173989.684491571
2,1, 8,21, 0,11,40.00,50.00,SummerDesignDay
8,521888353.3827525
1163,24275870.27589587
2,1, 8,21, 0,11,50.00,60.00,SummerDesignDay
8,523835010.2639412
1163,23711252.69666225
2,1, 8,21, 0,12, 0.00,10.00,SummerDesignDay
8,525420439.69613316
1163,20883589.417036296
2,1, 8,21, 0,12,10.00,20.00,SummerDesignDay
8,526907463.756431
1163,32763424.80814352
2,1, 8,21, 0,12,20.00,30.00,SummerDesignDay
8,528274929.3032384
1163,19522300.137889528
2,1, 8,21, 0,12,30.00,40.00,SummerDesignDay
8,529549079.41389569
1163,29034261.711918657
2,1, 8,21, 0,12,40.00,50.00,SummerDesignDay
8,530755562.65112778
1163,26082495.400646997
2,1, 8,21, 0,12,50.00,60.00,SummerDesignDay
8,531923620.95398148
1163,22470491.93819551
2,1, 8,21, 0,13, 0.00,10.00,SummerDesignDay
8,532967049.0410526
1163,35036456.42017126
2,1, 8,21, 0,13,10.00,20.00,SummerDesignDay
8,534005512.9159978
1163,26862743.502336157
2,1, 8,21, 0,13,20.00,30.00,SummerDesignDay
8,534961252.08906599
1163,29151774.080572856
2,1, 8,21, 0,13,30.00,40.00,SummerDesignDay
8,536227430.0133789
1163,35254156.69778587
2,1, 8,21, 0,13,40.00,50.00,SummerDesignDay
8,537363321.642349
1163,25864761.753335466
2,1, 8,21, 0,13,50.00,60.00,SummerDesignDay
8,538437947.0068114
1163,30149801.50776644
2,1, 8,21, 0,14, 0.00,10.00,SummerDesignDay
8,539343679.9745194
1163,34654424.59144237
2,1, 8,21, 0,14,10.00,20.00,SummerDesignDay
8,540148379.2520398
1163,21818486.94497522
2,1, 8,21, 0,14,20.00,30.00,SummerDesignDay
8,540853749.4012144
1163,32203414.017717396
2,1, 8,21, 0,14,30.00,40.00,SummerDesignDay
8,541444198.5017814
1163,31165951.247084377
2,1, 8,21, 0,14,40.00,50.00,SummerDesignDay
8,541910428.7442472
1163,22851038.80939342
2,1, 8,21, 0,14,50.00,60.00,SummerDesignDay
8,542243911.9990454
1163,34589814.09301798
2,1, 8,21, 0,15, 0.00,10.00,SummerDesignDay
8,542139029.5263208
1163,19477290.805723229
2,1, 8,21, 0,15,10.00,20.00,SummerDesignDay
8,541877316.3009322
1163,15738805.00309438
2,1, 8,21, 0,15,20.00,30.00,SummerDesignDay
8,541447609.8448846
1163,27892228.30707275
2,1, 8,21, 0,15,30.00,40.00,SummerDesignDay
8,540853497.7833183
1163,15555445.52836913
2,1, 8,21, 0,15,40.00,50.00,SummerDesignDay
8,540101640.1609944
1163,18356084.288144228
2,1, 8,21, 0,15,50.00,60.00,SummerDesignDay
8,539200017.3085731
1163,26052808.77556305
2,1, 8,21, 0,16, 0.00,10.00,SummerDesignDay
8,537806262.8013103
1163,14578960.45205637
2,1, 8,21, 0,16,10.00,20.00,SummerDesignDay
8,536313602.03585717
1163,19803707.166198277
2,1, 8,21, 0,16,20.00,30.00,SummerDesignDay
8,534631755.0599326
1163,23950974.636702096
2,1, 8,21, 0,16,30.00,40.00,SummerDesignDay
8,532815918.1419918
1163,14560192.560747443
2,1, 8,21, 0,16,40.00,50.00,SummerDesignDay
8,530882357.56362876
1163,21308587.081603134
2,1, 8,21, 0,16,50.00,60.00,SummerDesignDay
8,528846239.10505166
1163,22444683.585989246
2,1, 8,21, 0,17, 0.00,10.00,SummerDesignDay
8,526610634.1395552
1163,17273256.4200415
2,1, 8,21, 0,17,10.00,20.00,SummerDesignDay
8,524286755.26226529
1163,31846587.6589905
2,1, 8,21, 0,17,20.00,30.00,SummerDesignDay
8,521907250.24514868
1163,20145004.687724186
2,1, 8,21, 0,17,30.00,40.00,SummerDesignDay
8,519479435.8261316
1163,25643965.854941667
2,1, 8,21, 0,17,40.00,50.00,SummerDesignDay
8,516946935.11830756
1163,26562236.335329549
2,1, 8,21, 0,17,50.00,60.00,SummerDesignDay
8,514459513.55745539
1163,19221049.727667449
2,1, 8,21, 0,18, 0.00,10.00,SummerDesignDay
8,511906386.0130396
1163,24437741.974525867
2,1, 8,21, 0,18,10.00,20.00,SummerDesignDay
8,509349471.74605116
1163,14397401.385397172
2,1, 8,21, 0,18,20.00,30.00,SummerDesignDay
8,506765554.17239519
1163,13199327.121111598
2,1, 8,21, 0,18,30.00,40.00,SummerDesignDay
8,504150548.1192264
1163,15340152.35366784
2,1, 8,21, 0,18,40.00,50.00,SummerDesignDay
8,501484793.03884139
1163,23229507.307611094
2,1, 8,21, 0,18,50.00,60.00,SummerDesignDay
8,498774543.355578
1163,14317178.823228743
2,1, 8,21, 0,19, 0.00,10.00,SummerDesignDay
8,495898539.7811273
1163,12449136.0675414
2,1, 8,21, 0,19,10.00,20.00,SummerDesignDay
8,492915903.96902188
1163,12389044.250104383
2,1, 8,21, 0,19,20.00,30.00,SummerDesignDay
8,489801118.6182919
1163,12409612.679170654
2,1, 8,21, 0,19,30.00,40.00,SummerDesignDay
8,486510378.94040027
1163,19141271.284516477
2,1, 8,21, 0,19,40.00,50.00,SummerDesignDay
8,483623618.24098059
1163,18059311.42885199
2,1, 8,21, 0,19,50.00,60.00,SummerDesignDay
8,481739174.31078997
1163,12363885.206214695
2,1, 8,21, 0,20, 0.00,10.00,SummerDesignDay
8,480258284.8098505
1163,11589585.866963868
2,1, 8,21, 0,20,10.00,20.00,SummerDesignDay
8,478958659.59213516
1163,11515887.248950709
2,1, 8,21, 0,20,20.00,30.00,SummerDesignDay
8,477849058.24377909
1163,11519664.537580787
2,1, 8,21, 0,20,30.00,40.00,SummerDesignDay
8,476687647.881904
1163,11520791.470924529
2,1, 8,21, 0,20,40.00,50.00,SummerDesignDay
8,475546508.4549448
1163,11521167.844914962
2,1, 8,21, 0,20,50.00,60.00,SummerDesignDay
8,474498997.48155549
1163,11521401.366491003
2,1, 8,21, 0,21, 0.00,10.00,SummerDesignDay
8,473614222.73404178
1163,11766542.307938284
2,1, 8,21, 0,21,10.00,20.00,SummerDesignDay
8,472843403.58915886
1163,11795892.659952762
2,1, 8,21, 0,21,20.00,30.00,SummerDesignDay
8,472113360.32364878
1163,11798478.208012535
2,1, 8,21, 0,21,30.00,40.00,SummerDesignDay
8,471413620.62309256
1163,11801792.412424704
2,1, 8,21, 0,21,40.00,50.00,SummerDesignDay
8,470744247.9605351
1163,11805299.01197065
2,1, 8,21, 0,21,50.00,60.00,SummerDesignDay
8,470098566.9224261
1163,11808843.777689415
2,1, 8,21, 0,22, 0.00,10.00,SummerDesignDay
8,469471350.1101986
1163,10756079.115022367
2,1, 8,21, 0,22,10.00,20.00,SummerDesignDay
8,468858761.91471448
1163,10649402.15036055
2,1, 8,21, 0,22,20.00,30.00,SummerDesignDay
8,468258663.66420176
1163,10667278.388884895
2,1, 8,21, 0,22,30.00,40.00,SummerDesignDay
8,467667052.0077467
1163,6462737.656984072
2,1, 8,21, 0,22,40.00,50.00,SummerDesignDay
8,467086930.75728568
1163,4213347.820357562
2,1, 8,21, 0,22,50.00,60.00,SummerDesignDay
8,466512889.6190159
1163,10637015.495923818
2,1, 8,21, 0,23, 0.00,10.00,SummerDesignDay
8,447076739.35768696
1163,10346548.771825837
2,1, 8,21, 0,23,10.00,20.00,SummerDesignDay
8,446605621.0616984
1163,7062469.810903883
2,1, 8,21, 0,23,20.00,30.00,SummerDesignDay
8,446425596.21960458
1163,3282741.3253938045
2,1, 8,21, 0,23,30.00,40.00,SummerDesignDay
8,446244672.5375671
1163,10304810.019161413
2,1, 8,21, 0,23,40.00,50.00,SummerDesignDay
8,446062789.6985979
1163,10340633.418768429
2,1, 8,21, 0,23,50.00,60.00,SummerDesignDay
8,445879928.83646568
1163,0.0
2,1, 8,21, 0,24, 0.00,10.00,SummerDesignDay
8,445696071.26199409
1163,10308575.994698277
2,1, 8,21, 0,24,10.00,20.00,SummerDesignDay
8,445511197.7359199
1163,10326755.108551195
2,1, 8,21, 0,24,20.00,30.00,SummerDesignDay
8,445325287.6558836
1163,0.0
2,1, 8,21, 0,24,30.00,40.00,SummerDesignDay
8,445138321.7806024
1163,10314054.376339777
2,1, 8,21, 0,24,40.00,50.00,SummerDesignDay
8,444950279.63254806
1163,10313052.995841362
2,1, 8,21, 0,24,50.00,60.00,SummerDesignDay
8,444761138.18698897
1163,6097603.84083226
1,CLIMATE ZONE 3 ANN CLG .4% CONDNS WB=>MDB HVAC Sizing Pass 1,  37.70,-122.20,  -8.00,   2.00
2,1, 8,21, 0, 1, 0.00,10.00,SummerDesignDay
8,446552375.156441
1163,0.0
2,1, 8,21, 0, 1,10.00,20.00,SummerDesignDay
8,446360527.56715866
1163,0.0
2,1, 8,21, 0, 1,20.00,30.00,SummerDesignDay
8,446166895.65626457
1163,0.0
2,1, 8,21, 0, 1,30.00,40.00,SummerDesignDay
8,445971454.958382
1163,0.0
2,1, 8,21, 0, 1,40.00,50.00,SummerDesignDay
8,445774186.34509828
1163,0.0
2,1, 8,21, 0, 1,50.00,60.00,SummerDesignDay
8,445575018.1280529
1163,0.0
2,1, 8,21, 0, 2, 0.00,10.00,SummerDesignDay
8,445441166.51424339
1163,0.0
2,1, 8,21, 0, 2,10.00,20.00,SummerDesignDay
8,445306463.6928434
1163,0.0
2,1, 8,21, 0, 2,20.00,30.00,SummerDesignDay
8,445170879.8628998
1163,0.0
2,1, 8,21, 0, 2,30.00,40.00,SummerDesignDay
8,445034405.25351396
1163,0.0
2,1, 8,21, 0, 2,40.00,50.00,SummerDesignDay
8,444897030.6322485
1163,0.0
2,1, 8,21, 0, 2,50.00,60.00,SummerDesignDay
8,444758723.22949889
1163,0.0
2,1, 8,21, 0, 3, 0.00,10.00,SummerDesignDay
8,444654398.46413269
1163,0.0
2,1, 8,21, 0, 3,10.00,20.00,SummerDesignDay
8,444553247.62887307
1163,0.0
2,1, 8,21, 0, 3,20.00,30.00,SummerDesignDay
8,444470495.09764698
1163,0.0
2,1, 8,21, 0, 3,30.00,40.00,SummerDesignDay
8,444387236.288078
1163,0.0
2,1, 8,21, 0, 3,40.00,50.00,SummerDesignDay
8,444303446.71495476
1163,0.0
2,1, 8,21, 0, 3,50.00,60.00,SummerDesignDay
8,444219126.32202377
1163,0.0
2,1, 8,21, 0, 4, 0.00,10.00,SummerDesignDay
8,444134287.9232183
1163,0.0
2,1, 8,21, 0, 4,10.00,20.00,SummerDesignDay
8,444048881.45440247
1163,0.0
2,1, 8,21, 0, 4,20.00,30.00,SummerDesignDay
8,443962919.4536301
1163,0.0
2,1, 8,21, 0, 4,30.00,40.00,SummerDesignDay
8,443876396.22036966
1163,0.0
2,1, 8,21, 0, 4,40.00,50.00,SummerDesignDay
8,443789302.5349481
1163,0.0
2,1, 8,21, 0, 4,50.00,60.00,SummerDesignDay
8,443701636.93893179
1163,0.0
2,1, 8,21, 0, 5, 0.00,10.00,SummerDesignDay
8,443642881.2918514
1163,0.0
2,1, 8,21, 0, 5,10.00,20.00,SummerDesignDay
8,443583846.1645471
1163,0.0
2,1, 8,21, 0, 5,20.00,30.00,SummerDesignDay
8,443524568.0604125
1163,0.0
2,1, 8,21, 0, 5,30.00,40.00,SummerDesignDay
8,443465003.05720099
1163,0.0
2,1, 8,21, 0, 5,40.00,50.00,SummerDesignDay
8,443405192.24578097
1163,0.0
2,1, 8,21, 0, 5,50.00,60.00,SummerDesignDay
8,443345089.38592508
1163,0.0
2,1, 8,21, 0, 6, 0.00,10.00,SummerDesignDay
8,443405174.4806049
1163,0.0
2,1, 8,21, 0, 6,10.00,20.00,SummerDesignDay
8,443464985.6699034
1163,0.0
2,1, 8,21, 0, 6,20.00,30.00,SummerDesignDay
8,443524551.05356439
1163,0.0
2,1, 8,21, 0, 6,30.00,40.00,SummerDesignDay
8,443583829.53384068
1163,0.0
2,1, 8,21, 0, 6,40.00,50.00,SummerDesignDay
8,443642873.2386338
1163,0.0
2,1, 8,21, 0, 6,50.00,60.00,SummerDesignDay
8,443701625.20176199
1163,0.0
2,1, 8,21, 0, 7, 0.00,10.00,SummerDesignDay
8,443934988.8898701
1163,25722766.09300171
2,1, 8,21, 0, 7,10.00,20.00,SummerDesignDay
8,444135565.05543848
1163,8012373.621997488
2,1, 8,21, 0, 7,20.00,30.00,SummerDesignDay
8,444333146.59105119
1163,10591806.382559414
2,1, 8,21, 0, 7,30.00,40.00,SummerDesignDay
8,444527828.3198145
1163,10563605.636949229
2,1, 8,21, 0, 7,40.00,50.00,SummerDesignDay
8,444753688.26448187
1163,10550943.790750076
2,1, 8,21, 0, 7,50.00,60.00,SummerDesignDay
8,445020759.2654776
1163,513255.7240174654
2,1, 8,21, 0, 8, 0.00,10.00,SummerDesignDay
8,492863408.3493916
1163,16499791.726993069
2,1, 8,21, 0, 8,10.00,20.00,SummerDesignDay
8,472881281.65059718
1163,17067715.710680903
2,1, 8,21, 0, 8,20.00,30.00,SummerDesignDay
8,478103400.5622187
1163,13761876.821424913
2,1, 8,21, 0, 8,30.00,40.00,SummerDesignDay
8,478366424.44230988
1163,12071132.421006104
2,1, 8,21, 0, 8,40.00,50.00,SummerDesignDay
8,479693453.632975
1163,12071065.060162252
2,1, 8,21, 0, 8,50.00,60.00,SummerDesignDay
8,481580578.62838926
1163,12078577.364351966
2,1, 8,21, 0, 9, 0.00,10.00,SummerDesignDay
8,484012028.80016979
1163,17850837.85404946
2,1, 8,21, 0, 9,10.00,20.00,SummerDesignDay
8,486484438.74371889
1163,26822147.86137533
2,1, 8,21, 0, 9,20.00,30.00,SummerDesignDay
8,488992994.2575751
1163,15002415.075303914
2,1, 8,21, 0, 9,30.00,40.00,SummerDesignDay
8,491509340.3562996
1163,21888215.97824708
2,1, 8,21, 0, 9,40.00,50.00,SummerDesignDay
8,494019757.0338609
1163,23190145.617684824
2,1, 8,21, 0, 9,50.00,60.00,SummerDesignDay
8,497224463.89469948
1163,15010466.599117114
2,1, 8,21, 0,10, 0.00,10.00,SummerDesignDay
8,499463733.07502737
1163,26821484.764446394
2,1, 8,21, 0,10,10.00,20.00,SummerDesignDay
8,502560850.50105699
1163,20277681.974201118
2,1, 8,21, 0,10,20.00,30.00,SummerDesignDay
8,506180211.1239334
1163,18964141.149823034
2,1, 8,21, 0,10,30.00,40.00,SummerDesignDay
8,508703221.42381516
1163,28266081.890294095
2,1, 8,21, 0,10,40.00,50.00,SummerDesignDay
8,511770007.4063165
1163,15719938.4532092
2,1, 8,21, 0,10,50.00,60.00,SummerDesignDay
8,514581179.97692546
1163,24918664.99524382
2,1, 8,21, 0,11, 0.00,10.00,SummerDesignDay
8,517166696.98770329
1163,22632996.65242938
2,1, 8,21, 0,11,10.00,20.00,SummerDesignDay
8,519623436.36674639
1163,17747608.45051314
2,1, 8,21, 0,11,20.00,30.00,SummerDesignDay
8,521970426.6499609
1163,30059263.27946469
2,1, 8,21, 0,11,30.00,40.00,SummerDesignDay
8,524170720.7857116
1163,16163851.373866793
2,1, 8,21, 0,11,40.00,50.00,SummerDesignDay
8,526246595.83910199
1163,24286045.798396108
2,1, 8,21, 0,11,50.00,60.00,SummerDesignDay
8,528207204.563785
1163,23701085.19460629
2,1, 8,21, 0,12, 0.00,10.00,SummerDesignDay
8,529794115.48443457
1163,20892506.756423169
2,1, 8,21, 0,12,10.00,20.00,SummerDesignDay
8,531254026.8858095
1163,32763402.37567937
2,1, 8,21, 0,12,20.00,30.00,SummerDesignDay
8,532600448.01399627
1163,19513269.311674369
2,1, 8,21, 0,12,30.00,40.00,SummerDesignDay
8,533847137.9853626
1163,29043317.631276646
2,1, 8,21, 0,12,40.00,50.00,SummerDesignDay
8,535026249.9484436
1163,26073443.862344125
2,1, 8,21, 0,12,50.00,60.00,SummerDesignDay
8,536163859.9710692
1163,22479546.243889817
2,1, 8,21, 0,13, 0.00,10.00,SummerDesignDay
8,537176312.4678922
1163,35036446.020957659
2,1, 8,21, 0,13,10.00,20.00,SummerDesignDay
8,538176584.9586473
1163,26851680.6588963
2,1, 8,21, 0,13,20.00,30.00,SummerDesignDay
8,539093639.2501179
1163,29162844.715685205
2,1, 8,21, 0,13,30.00,40.00,SummerDesignDay
8,539927647.6024658
1163,35254144.67243265
2,1, 8,21, 0,13,40.00,50.00,SummerDesignDay
8,540665191.0138222
1163,25853714.541912505
2,1, 8,21, 0,13,50.00,60.00,SummerDesignDay
8,541342055.5534884
1163,30160862.694214304
2,1, 8,21, 0,14, 0.00,10.00,SummerDesignDay
8,542868785.7605894
1163,34654405.02323515
2,1, 8,21, 0,14,10.00,20.00,SummerDesignDay
8,543289963.6346002
1163,21808151.543428944
2,1, 8,21, 0,14,20.00,30.00,SummerDesignDay
8,544111649.2053825
1163,32213785.11913237
2,1, 8,21, 0,14,30.00,40.00,SummerDesignDay
8,544708511.5163657
1163,31155563.028192469
2,1, 8,21, 0,14,40.00,50.00,SummerDesignDay
8,545168335.3701573
1163,22861429.12920854
2,1, 8,21, 0,14,50.00,60.00,SummerDesignDay
8,545487103.8976666
1163,34589810.17532136
2,1, 8,21, 0,15, 0.00,10.00,SummerDesignDay
8,545353264.1186564
1163,19469837.935217479
2,1, 8,21, 0,15,10.00,20.00,SummerDesignDay
8,545058244.8642298
1163,15746621.715878644
2,1, 8,21, 0,15,20.00,30.00,SummerDesignDay
8,544593725.0747218
1163,27892176.361097605
2,1, 8,21, 0,15,30.00,40.00,SummerDesignDay
8,543964298.1114547
1163,15547653.197763576
2,1, 8,21, 0,15,40.00,50.00,SummerDesignDay
8,543177594.2999415
1163,18363926.37991143
2,1, 8,21, 0,15,50.00,60.00,SummerDesignDay
8,542241952.9134992
1163,26044948.97203661
2,1, 8,21, 0,16, 0.00,10.00,SummerDesignDay
8,540807181.8406134
1163,14578974.214714917
2,1, 8,21, 0,16,10.00,20.00,SummerDesignDay
8,539279222.6327732
1163,19811712.078272657
2,1, 8,21, 0,16,20.00,30.00,SummerDesignDay
8,537568969.0364002
1163,23942960.26513975
2,1, 8,21, 0,16,30.00,40.00,SummerDesignDay
8,535729138.78731897
1163,14560210.337730727
2,1, 8,21, 0,16,40.00,50.00,SummerDesignDay
8,533780243.82452198
1163,21316563.182264396
2,1, 8,21, 0,16,50.00,60.00,SummerDesignDay
8,531731378.58387497
1163,22436700.26893765
2,1, 8,21, 0,17, 0.00,10.00,SummerDesignDay
8,529561122.55804118
1163,17279821.1816354
2,1, 8,21, 0,17,10.00,20.00,SummerDesignDay
8,527342126.30920448
1163,31846571.867178367
2,1, 8,21, 0,17,20.00,30.00,SummerDesignDay
8,525050302.20020267
1163,20138320.647499749
2,1, 8,21, 0,17,30.00,40.00,SummerDesignDay
8,522686925.5074999
1163,25650652.017989763
2,1, 8,21, 0,17,40.00,50.00,SummerDesignDay
8,520259773.1924823
1163,26555547.556329568
2,1, 8,21, 0,17,50.00,60.00,SummerDesignDay
8,517805937.3146695
1163,19227750.77969526
2,1, 8,21, 0,18, 0.00,10.00,SummerDesignDay
8,515243681.8516212
1163,24437709.621309624
2,1, 8,21, 0,18,10.00,20.00,SummerDesignDay
8,512692357.2393309
1163,14392299.74525123
2,1, 8,21, 0,18,20.00,30.00,SummerDesignDay
8,510289624.0990477
1163,13199341.512940232
2,1, 8,21, 0,18,30.00,40.00,SummerDesignDay
8,507842188.5195381
1163,15345323.983213695
2,1, 8,21, 0,18,40.00,50.00,SummerDesignDay
8,505329988.77345237
1163,23229444.558966515
2,1, 8,21, 0,18,50.00,60.00,SummerDesignDay
8,502738548.1173077
1163,14312053.64538139
2,1, 8,21, 0,19, 0.00,10.00,SummerDesignDay
8,499816285.27747759
1163,12449146.313922966
2,1, 8,21, 0,19,10.00,20.00,SummerDesignDay
8,496784081.66821518
1163,12389060.064350514
2,1, 8,21, 0,19,20.00,30.00,SummerDesignDay
8,493619657.514878
1163,12409629.700213911
2,1, 8,21, 0,19,30.00,40.00,SummerDesignDay
8,490290828.2435408
1163,19147244.10971584
2,1, 8,21, 0,19,40.00,50.00,SummerDesignDay
8,487931828.1999813
1163,18053292.150361636
2,1, 8,21, 0,19,50.00,60.00,SummerDesignDay
8,486025995.7193163
1163,12367966.604397254
2,1, 8,21, 0,20, 0.00,10.00,SummerDesignDay
8,484771569.53910139
1163,11521214.802446686
2,1, 8,21, 0,20,10.00,20.00,SummerDesignDay
8,483089227.1434731
1163,11523574.220607933
2,1, 8,21, 0,20,20.00,30.00,SummerDesignDay
8,481696202.4464683
1163,11510850.50937132
2,1, 8,21, 0,20,30.00,40.00,SummerDesignDay
8,480334612.7823901
1163,11516342.325811524
2,1, 8,21, 0,20,40.00,50.00,SummerDesignDay
8,479190670.68448588
1163,11520086.009909267
2,1, 8,21, 0,20,50.00,60.00,SummerDesignDay
8,478115249.9210274
1163,11521319.651450983
2,1, 8,21, 0,21, 0.00,10.00,SummerDesignDay
8,477212049.39328178
1163,11766762.938612637
2,1, 8,21, 0,21,10.00,20.00,SummerDesignDay
8,476374211.26814368
1163,11796230.890910069
2,1, 8,21, 0,21,20.00,30.00,SummerDesignDay
8,475588129.57573059
1163,11798854.059193138
2,1, 8,21, 0,21,30.00,40.00,SummerDesignDay
8,474842457.3966295
1163,11802177.203463573
2,1, 8,21, 0,21,40.00,50.00,SummerDesignDay
8,474130530.6121968
1163,11805685.60639073
2,1, 8,21, 0,21,50.00,60.00,SummerDesignDay
8,473440292.30065986
1163,11809230.888503289
2,1, 8,21, 0,22, 0.00,10.00,SummerDesignDay
8,472766837.91324397
1163,10755808.58897665
2,1, 8,21, 0,22,10.00,20.00,SummerDesignDay
8,472107539.4809563
1163,10648581.161656408
2,1, 8,21, 0,22,20.00,30.00,SummerDesignDay
8,471461932.27111247
1163,10666248.187046137
2,1, 8,21, 0,22,30.00,40.00,SummerDesignDay
8,470821906.4993077
1163,6905832.956209732
2,1, 8,21, 0,22,40.00,50.00,SummerDesignDay
8,470184284.77418157
1163,3771827.857160944
2,1, 8,21, 0,22,50.00,60.00,SummerDesignDay
8,469553963.39643469
1163,10637534.175687314
2,1, 8,21, 0,23, 0.00,10.00,SummerDesignDay
8,449388846.6177551
1163,10345610.406589043
2,1, 8,21, 0,23,10.00,20.00,SummerDesignDay
8,448873467.05276939
1163,7582558.624593899
2,1, 8,21, 0,23,20.00,30.00,SummerDesignDay
8,448672232.7575872
1163,2764258.8710981255
2,1, 8,21, 0,23,30.00,40.00,SummerDesignDay
8,448469213.64394327
1163,10304822.881901375
2,1, 8,21, 0,23,40.00,50.00,SummerDesignDay
8,448264284.33452597
1163,10339410.749207803
2,1, 8,21, 0,23,50.00,60.00,SummerDesignDay
8,448057396.744071
1163,0.0
2,1, 8,21, 0,24, 0.00,10.00,SummerDesignDay
8,447848500.5375952
1163,10309008.51184809
2,1, 8,21, 0,24,10.00,20.00,SummerDesignDay
8,447637551.34699609
1163,10325672.172499644
2,1, 8,21, 0,24,20.00,30.00,SummerDesignDay
8,447424499.84726259
1163,0.0
2,1, 8,21, 0,24,30.00,40.00,SummerDesignDay
8,447209296.54451856
1163,10314499.453695234
2,1, 8,21, 0,24,40.00,50.00,SummerDesignDay
8,446991886.15504869
1163,10311932.175307945
2,1, 8,21, 0,24,50.00,60.00,SummerDesignDay
8,446772218.74631759
1163,6630486.142696416
1,CLIMATE ZONE 3 ANN HTG 99.6% CONDNS DB HVAC Sizing Pass 1,  37.70,-122.20,  -8.00,   2.00
2,1, 1,21, 0, 1, 0.00,10.00,WinterDesignDay
8,3835171.3240381258
1163,129691746.30250986
2,1, 1,21, 0, 1,10.00,20.00,WinterDesignDay
8,3836687.2021841539
1163,130676780.67682193
2,1, 1,21, 0, 1,20.00,30.00,WinterDesignDay
8,3838006.7168956708
1163,131490493.16305165
2,1, 1,21, 0, 1,30.00,40.00,WinterDesignDay
8,3839097.8064800885
1163,132154671.00911375
2,1, 1,21, 0, 1,40.00,50.00,WinterDesignDay
8,3840240.335762362
1163,132799574.61296202
2,1, 1,21, 0, 1,50.00,60.00,WinterDesignDay
8,3841115.643998123
1163,133318348.81501852
2,1, 1,21, 0, 2, 0.00,10.00,WinterDesignDay
8,3842042.3618340108
1163,133818817.10208056
2,1, 1,21, 0, 2,10.00,20.00,WinterDesignDay
8,3843071.458330716
1163,134357701.90004433
2,1, 1,21, 0, 2,20.00,30.00,WinterDesignDay
8,3843803.689552824
1163,134779692.37912084
2,1, 1,21, 0, 2,30.00,40.00,WinterDesignDay
8,3844663.3482929298
1163,135221446.89070989
2,1, 1,21, 0, 2,40.00,50.00,WinterDesignDay
8,3845198.7686855855
1163,135532725.05390514
2,1, 1,21, 0, 2,50.00,60.00,WinterDesignDay
8,3845934.6889891589
1163,135899009.90960173
2,1, 1,21, 0, 3, 0.00,10.00,WinterDesignDay
8,3846500.527145516
1163,136202112.07537327
2,1, 1,21, 0, 3,10.00,20.00,WinterDesignDay
8,3846873.1233772418
1163,136412707.62816946
2,1, 1,21, 0, 3,20.00,30.00,WinterDesignDay
8,3847389.207645661
1163,136661791.13215155
2,1, 1,21, 0, 3,30.00,40.00,WinterDesignDay
8,3847792.0228052197
1163,136868868.6799636
2,1, 1,21, 0, 3,40.00,50.00,WinterDesignDay
8,3848195.048467267
1163,137072442.96489275
2,1, 1,21, 0, 3,50.00,60.00,WinterDesignDay
8,3848421.386509235
1163,137204061.02421857
2,1, 1,21, 0, 4, 0.00,10.00,WinterDesignDay
8,3848867.549798825
1163,137400751.15391756
2,1, 1,21, 0, 4,10.00,20.00,WinterDesignDay
8,3848951.5365315217
1163,137478160.55502714
2,1, 1,21, 0, 4,20.00,30.00,WinterDesignDay
8,3852518.9365694236
1163,140070309.6335434
2,1, 1,21, 0, 4,30.00,40.00,WinterDesignDay
8,3852399.6089691047
1163,141222125.2846262
2,1, 1,21, 0, 4,40.00,50.00,WinterDesignDay
8,3852933.9562468559
1163,141763099.0644447
2,1, 1,21, 0, 4,50.00,60.00,WinterDesignDay
8,3853516.0861357629
1163,142316850.371044
2,1, 1,21, 0, 5, 0.00,10.00,WinterDesignDay
8,3853926.1315141159
1163,142794976.48795433
2,1, 1,21, 0, 5,10.00,20.00,WinterDesignDay
8,3854313.6687844975
1163,143172142.00272889
2,1, 1,21, 0, 5,20.00,30.00,WinterDesignDay
8,3854597.4101050647
1163,143471421.55280087
2,1, 1,21, 0, 5,30.00,40.00,WinterDesignDay
8,3855087.617420904
1163,143856635.07225
2,1, 1,21, 0, 5,40.00,50.00,WinterDesignDay
8,3854964.4772657749
1163,143943999.31556425
2,1, 1,21, 0, 5,50.00,60.00,WinterDesignDay
8,3855564.36398648
1163,144315824.47318984
2,1, 1,21, 0, 6, 0.00,10.00,WinterDesignDay
8,23175421.338055884
1163,710619634.5406177
2,1, 1,21, 0, 6,10.00,20.00,WinterDesignDay
8,13399863.660790606
1163,505077352.64413276
2,1, 1,21, 0, 6,20.00,30.00,WinterDesignDay
8,4219641.864607534
1163,293030123.884668
2,1, 1,21, 0, 6,30.00,40.00,WinterDesignDay
8,4142092.5152624936
1163,290614162.08688446
2,1, 1,21, 0, 6,40.00,50.00,WinterDesignDay
8,4110875.397306416
1163,287231726.3314811
2,1, 1,21, 0, 6,50.00,60.00,WinterDesignDay
8,4076288.939922693
1163,274267403.7594057
2,1, 1,21, 0, 7, 0.00,10.00,WinterDesignDay
8,31121585.48868835
1163,884621628.5258937
2,1, 1,21, 0, 7,10.00,20.00,WinterDesignDay
8,19070251.578633328
1163,710462457.029707
2,1, 1,21, 0, 7,20.00,30.00,WinterDesignDay
8,5107375.932436956
1163,484442188.4664018
2,1, 1,21, 0, 7,30.00,40.00,WinterDesignDay
8,4625931.205805144
1163,393639395.8918187
2,1, 1,21, 0, 7,40.00,50.00,WinterDesignDay
8,4759954.235120829
1163,434489121.1029355
2,1, 1,21, 0, 7,50.00,60.00,WinterDesignDay
8,4606197.873539984
1163,407381729.3008031
2,1, 1,21, 0, 8, 0.00,10.00,WinterDesignDay
8,34646607.6690782
1163,866366601.7484537
2,1, 1,21, 0, 8,10.00,20.00,WinterDesignDay
8,21800511.865713005
1163,710286626.4345929
2,1, 1,21, 0, 8,20.00,30.00,WinterDesignDay
8,6390035.94168989
1163,605349759.0771784
2,1, 1,21, 0, 8,30.00,40.00,WinterDesignDay
8,5297539.461800002
1163,499448088.750471
2,1, 1,21, 0, 8,40.00,50.00,WinterDesignDay
8,5645086.947914828
1163,532923363.6139383
2,1, 1,21, 0, 8,50.00,60.00,WinterDesignDay
8,5275092.364677773
1163,500882430.73709
2,1, 1,21, 0, 9, 0.00,10.00,WinterDesignDay
8,5226210.896238916
1163,496887158.8550525
2,1, 1,21, 0, 9,10.00,20.00,WinterDesignDay
8,5196457.415621329
1163,494649295.06071177
2,1, 1,21, 0, 9,20.00,30.00,WinterDesignDay
8,5178431.347038141
1163,493239848.3856439
2,1, 1,21, 0, 9,30.00,40.00,WinterDesignDay
8,5145785.769657293
1163,489397354.98211047
2,1, 1,21, 0, 9,40.00,50.00,WinterDesignDay
8,5145053.642800933
1163,490422303.7342909
2,1, 1,21, 0, 9,50.00,60.00,WinterDesignDay
8,5127404.085262512